SIRIUS 6.5.7, git hash: https://api.github.com/repos/electronic-structure/SIRIUS/git/ref/tags/v6.5.7

     Program PWSCF v.6.5 starts on  7Nov2021 at 14:38:24 

     This program is part of the open-source Quantum ESPRESSO suite
     for quantum simulation of materials; please cite
         "P. Giannozzi et al., J. Phys.:Condens. Matter 21 395502 (2009);
         "P. Giannozzi et al., J. Phys.:Condens. Matter 29 465901 (2017);
          URL http://www.quantum-espresso.org", 
     in publications or presentations arising from this work. More details at
     http://www.quantum-espresso.org/quote

     Parallel version (MPI & OpenMP), running on      48 processor cores
     Number of MPI processes:                 4
     Threads/MPI process:                    12

     MPI processes distributed on     4 nodes
     K-points division:     npool     =       4
     Fft bands division:     nmany     =       1
     Reading input from qe.in

     Current dimensions of program PWSCF are:
     Max number of different atomic species (ntypx) = 10
     Max number of k-points (npk) =  40000
     Max angular momentum in pseudopotentials (lmaxx) =  3

     IMPORTANT: XC functional enforced from input :
     Exchange-correlation= PBESOL
                           (   1   4  10   8   0   0   0)
     Any further DFT definition will be discarded
     Please, verify this is what you really want

               file C.pbe-n-kjpaw_psl.1.0.0.UPF: wavefunction(s)  2S 2P renormalized

     Subspace diagonalization in iterative solution of the eigenvalue problem:
     a serial algorithm will be used

     Message from routine setup:
     using ibrav=0 with symmetry is DISCOURAGED, use correct ibrav instead

     G-vector sticks info
     --------------------
     sticks:   dense  smooth     PW     G-vecs:    dense   smooth      PW
     Sum        3673    3673   1005               166605   166605   24111


     Title: 
     FASI_relax                                                                 


     bravais-lattice index     =            0
     lattice parameter (alat)  =      11.9193  a.u.
     unit-cell volume          =    1693.3539 (a.u.)^3
     number of atoms/cell      =           12
     number of atomic types    =            5
     number of electrons       =        54.00
     number of Kohn-Sham states=           27
     kinetic-energy cutoff     =      81.0000  Ry
     charge density cutoff     =     324.0000  Ry
     convergence threshold     =      1.0E-06
     mixing beta               =       0.7000
     number of iterations used =            8  plain     mixing
     Exchange-correlation= PBESOL
                           (   1   4  10   8   0   0   0)
     nstep                     =         1000


     celldm(1)=  11.919259  celldm(2)=   0.000000  celldm(3)=   0.000000
     celldm(4)=   0.000000  celldm(5)=   0.000000  celldm(6)=   0.000000

     crystal axes: (cart. coord. in units of alat)
               a(1) = (   1.000000   0.000000   0.000000 )  
               a(2) = (   0.000000   1.000000   0.000000 )  
               a(3) = (   0.000000   0.000000   1.000000 )  

     reciprocal axes: (cart. coord. in units 2 pi/alat)
               b(1) = (  1.000000  0.000000  0.000000 )  
               b(2) = (  0.000000  1.000000  0.000000 )  
               b(3) = (  0.000000  0.000000  1.000000 )  


     PseudoPot. # 1 for Sn read from file:
     /users/imosquer/SSSP_PBE_efficiency/Sn_pbe_v1.uspp.F.UPF
     MD5 check sum: 4cf58ce39ec5d5d420df3dd08604eb00
     Pseudo is Ultrasoft + core correction, Zval = 14.0
     Generated by new atomic code, or converted to UPF format
     Using radial grid of  891 points,  6 beta functions with: 
                l(1) =   0
                l(2) =   0
                l(3) =   1
                l(4) =   1
                l(5) =   2
                l(6) =   2
     Q(r) pseudized with  6 coefficients,  rinner =    1.200   1.200   1.200
                                                       1.200   1.200

     PseudoPot. # 2 for I  read from file:
     /users/imosquer/SSSP_PBE_efficiency/I.pbe-n-kjpaw_psl.0.2.UPF
     MD5 check sum: d4ef18d9c8f18dc85e5843bca1e50dc0
     Pseudo is Projector augmented-wave + core cor, Zval =  7.0
     Generated using "atomic" code by A. Dal Corso v.5.0.99 svn rev. 10869
     Shape of augmentation charge: PSQ
     Using radial grid of 1247 points,  4 beta functions with: 
                l(1) =   0
                l(2) =   0
                l(3) =   1
                l(4) =   1
     Q(r) pseudized with 0 coefficients 


     PseudoPot. # 3 for H  read from file:
     /users/imosquer/SSSP_PBE_efficiency/H.pbe-rrkjus_psl.1.0.0.UPF
     MD5 check sum: f52b6d4d1c606e5624b1dc7b2218f220
     Pseudo is Ultrasoft, Zval =  1.0
     Generated using "atomic" code by A. Dal Corso v.5.1
     Using radial grid of  929 points,  2 beta functions with: 
                l(1) =   0
                l(2) =   0
     Q(r) pseudized with 0 coefficients 


     PseudoPot. # 4 for C  read from file:
     /users/imosquer/SSSP_PBE_efficiency/C.pbe-n-kjpaw_psl.1.0.0.UPF
     MD5 check sum: 5d2aebdfa2cae82b50a7e79e9516da0f
     Pseudo is Projector augmented-wave + core cor, Zval =  4.0
     Generated using "atomic" code by A. Dal Corso v.5.1
     Shape of augmentation charge: PSQ
     Using radial grid of 1073 points,  4 beta functions with: 
                l(1) =   0
                l(2) =   0
                l(3) =   1
                l(4) =   1
     Q(r) pseudized with 0 coefficients 


     PseudoPot. # 5 for N  read from file:
     /users/imosquer/SSSP_PBE_efficiency/N.pbe-n-radius_5.UPF
     MD5 check sum: 16739722b17309cd8fe442a2ace49922
     Pseudo is Ultrasoft + core correction, Zval =  5.0
     Generated using "atomic" code by A. Dal Corso v.5.1
     Using radial grid of 1085 points,  4 beta functions with: 
                l(1) =   0
                l(2) =   0
                l(3) =   1
                l(4) =   1
     Q(r) pseudized with 0 coefficients 


     atomic species   valence    mass     pseudopotential
        Sn            14.00   118.71000     Sn( 1.00)
        I              7.00   126.90447     I ( 1.00)
        H              1.00     1.00800     H ( 1.00)
        C              4.00    12.01100     C ( 1.00)
        N              5.00    14.00700     N ( 1.00)

      4 Sym. Ops. (no inversion) found


                                    s                        frac. trans.

      isym =  1     identity                                     

 cryst.   s( 1) = (     1          0          0      )
                  (     0          1          0      )
                  (     0          0          1      )

 cart.    s( 1) = (  1.0000000  0.0000000  0.0000000 )
                  (  0.0000000  1.0000000  0.0000000 )
                  (  0.0000000  0.0000000  1.0000000 )


      isym =  2     180 deg rotation - cart. axis [0,1,0]        

 cryst.   s( 2) = (    -1          0          0      )
                  (     0          1          0      )
                  (     0          0         -1      )

 cart.    s( 2) = ( -1.0000000  0.0000000  0.0000000 )
                  (  0.0000000  1.0000000  0.0000000 )
                  (  0.0000000  0.0000000 -1.0000000 )


      isym =  3     inv. 180 deg rotation - cart. axis [0,0,1]   

 cryst.   s( 3) = (     1          0          0      )
                  (     0          1          0      )
                  (     0          0         -1      )

 cart.    s( 3) = (  1.0000000  0.0000000  0.0000000 )
                  (  0.0000000  1.0000000  0.0000000 )
                  (  0.0000000  0.0000000 -1.0000000 )


      isym =  4     inv. 180 deg rotation - cart. axis [1,0,0]   

 cryst.   s( 4) = (    -1          0          0      )
                  (     0          1          0      )
                  (     0          0          1      )

 cart.    s( 4) = ( -1.0000000  0.0000000  0.0000000 )
                  (  0.0000000  1.0000000  0.0000000 )
                  (  0.0000000  0.0000000  1.0000000 )


   Cartesian axes

     site n.     atom                  positions (alat units)
         1           Sn  tau(   1) = (   0.5000000   0.5000000   0.5000000  )
         2           I   tau(   2) = (   0.0000000   0.5000000   0.5000000  )
         3           I   tau(   3) = (   0.5000000   0.0000000   0.5000000  )
         4           I   tau(   4) = (   0.5000000   0.5000000   0.0000000  )
         5           H   tau(   5) = (   0.0000000   0.2416871   0.0000000  )
         6           H   tau(   6) = (   0.3118000   0.0664871   0.0000000  )
         7           H   tau(   7) = (   0.2020000  -0.1906129   0.0000000  )
         8           H   tau(   8) = (  -0.2020000  -0.1906129  -0.0000000  )
         9           H   tau(   9) = (  -0.3118000   0.0664871  -0.0000000  )
        10           C   tau(  10) = (   0.0000000   0.0665871   0.0000000  )
        11           N   tau(  11) = (   0.1817000  -0.0283129   0.0000000  )
        12           N   tau(  12) = (  -0.1817000  -0.0283129  -0.0000000  )

   Crystallographic axes

     site n.     atom                  positions (cryst. coord.)
         1           Sn  tau(   1) = (  0.5000000  0.5000000  0.5000000  )
         2           I   tau(   2) = (  0.0000000  0.5000000  0.5000000  )
         3           I   tau(   3) = (  0.5000000  0.0000000  0.5000000  )
         4           I   tau(   4) = (  0.5000000  0.5000000  0.0000000  )
         5           H   tau(   5) = (  0.0000000  0.2416871  0.0000000  )
         6           H   tau(   6) = (  0.3118000  0.0664871  0.0000000  )
         7           H   tau(   7) = (  0.2020000 -0.1906129  0.0000000  )
         8           H   tau(   8) = ( -0.2020000 -0.1906129 -0.0000000  )
         9           H   tau(   9) = ( -0.3118000  0.0664871  0.0000000  )
        10           C   tau(  10) = (  0.0000000  0.0665871  0.0000000  )
        11           N   tau(  11) = (  0.1817000 -0.0283129  0.0000000  )
        12           N   tau(  12) = ( -0.1817000 -0.0283129 -0.0000000  )

     number of k points=    64
                       cart. coord. in units 2pi/alat
        k(    1) = (   0.0000000   0.0000000   0.0000000), wk =   0.0092593
        k(    2) = (   0.0000000   0.0000000   0.1666667), wk =   0.0185185
        k(    3) = (   0.0000000   0.0000000   0.3333333), wk =   0.0185185
        k(    4) = (   0.0000000   0.0000000  -0.5000000), wk =   0.0092593
        k(    5) = (   0.0000000   0.1666667   0.1666667), wk =   0.0370370
        k(    6) = (   0.0000000   0.1666667   0.3333333), wk =   0.0370370
        k(    7) = (   0.0000000   0.1666667  -0.5000000), wk =   0.0185185
        k(    8) = (   0.0000000   0.3333333   0.3333333), wk =   0.0370370
        k(    9) = (   0.0000000   0.3333333  -0.5000000), wk =   0.0185185
        k(   10) = (   0.0000000  -0.5000000  -0.5000000), wk =   0.0092593
        k(   11) = (   0.1666667   0.1666667   0.1666667), wk =   0.0740741
        k(   12) = (   0.1666667   0.1666667   0.3333333), wk =   0.0740741
        k(   13) = (   0.1666667   0.1666667  -0.5000000), wk =   0.0370370
        k(   14) = (   0.1666667   0.3333333   0.3333333), wk =   0.0740741
        k(   15) = (   0.1666667   0.3333333  -0.5000000), wk =   0.0370370
        k(   16) = (   0.1666667  -0.5000000  -0.5000000), wk =   0.0185185
        k(   17) = (   0.3333333   0.3333333   0.3333333), wk =   0.0740741
        k(   18) = (   0.3333333   0.3333333  -0.5000000), wk =   0.0370370
        k(   19) = (   0.3333333  -0.5000000  -0.5000000), wk =   0.0185185
        k(   20) = (  -0.5000000  -0.5000000  -0.5000000), wk =   0.0092593
        k(   21) = (   0.1666667   0.0000000   0.0000000), wk =   0.0185185
        k(   22) = (   0.0000000   0.1666667   0.0000000), wk =   0.0185185
        k(   23) = (   0.3333333   0.0000000   0.0000000), wk =   0.0185185
        k(   24) = (   0.0000000   0.3333333   0.0000000), wk =   0.0185185
        k(   25) = (  -0.5000000   0.0000000   0.0000000), wk =   0.0092593
        k(   26) = (   0.0000000  -0.5000000   0.0000000), wk =   0.0092593
        k(   27) = (   0.1666667   0.0000000  -0.1666667), wk =   0.0370370
        k(   28) = (   0.1666667  -0.1666667   0.0000000), wk =   0.0370370
        k(   29) = (   0.1666667   0.0000000  -0.3333333), wk =   0.0370370
        k(   30) = (   0.3333333  -0.1666667   0.0000000), wk =   0.0370370
        k(   31) = (   0.0000000   0.3333333   0.1666667), wk =   0.0370370
        k(   32) = (   0.1666667   0.3333333   0.0000000), wk =   0.0370370
        k(   33) = (   0.3333333   0.0000000   0.1666667), wk =   0.0370370
        k(   34) = (   0.1666667   0.0000000   0.5000000), wk =   0.0185185
        k(   35) = (  -0.5000000  -0.1666667   0.0000000), wk =   0.0185185
        k(   36) = (   0.0000000  -0.5000000   0.1666667), wk =   0.0185185
        k(   37) = (   0.1666667  -0.5000000   0.0000000), wk =   0.0185185
        k(   38) = (  -0.5000000   0.0000000   0.1666667), wk =   0.0185185
        k(   39) = (   0.3333333   0.0000000  -0.3333333), wk =   0.0370370
        k(   40) = (   0.3333333  -0.3333333   0.0000000), wk =   0.0370370
        k(   41) = (   0.3333333   0.0000000   0.5000000), wk =   0.0185185
        k(   42) = (  -0.5000000  -0.3333333   0.0000000), wk =   0.0185185
        k(   43) = (   0.0000000  -0.5000000   0.3333333), wk =   0.0185185
        k(   44) = (   0.3333333  -0.5000000   0.0000000), wk =   0.0185185
        k(   45) = (  -0.5000000   0.0000000   0.3333333), wk =   0.0185185
        k(   46) = (  -0.5000000   0.0000000   0.5000000), wk =   0.0092593
        k(   47) = (  -0.5000000   0.5000000   0.0000000), wk =   0.0092593
        k(   48) = (   0.3333333  -0.1666667   0.1666667), wk =   0.0740741
        k(   49) = (  -0.1666667   0.3333333   0.1666667), wk =   0.0740741
        k(   50) = (  -0.5000000  -0.1666667   0.1666667), wk =   0.0370370
        k(   51) = (  -0.1666667  -0.5000000   0.1666667), wk =   0.0370370
        k(   52) = (   0.3333333   0.1666667  -0.3333333), wk =   0.0740741
        k(   53) = (   0.3333333  -0.3333333   0.1666667), wk =   0.0740741
        k(   54) = (   0.3333333   0.1666667   0.5000000), wk =   0.0370370
        k(   55) = (  -0.5000000  -0.3333333   0.1666667), wk =   0.0370370
        k(   56) = (  -0.1666667  -0.5000000   0.3333333), wk =   0.0370370
        k(   57) = (   0.3333333  -0.5000000   0.1666667), wk =   0.0370370
        k(   58) = (  -0.5000000   0.1666667   0.3333333), wk =   0.0370370
        k(   59) = (  -0.5000000   0.1666667   0.5000000), wk =   0.0185185
        k(   60) = (  -0.5000000   0.5000000   0.1666667), wk =   0.0185185
        k(   61) = (  -0.5000000  -0.3333333   0.3333333), wk =   0.0370370
        k(   62) = (  -0.3333333  -0.5000000   0.3333333), wk =   0.0370370
        k(   63) = (  -0.5000000   0.3333333   0.5000000), wk =   0.0185185
        k(   64) = (  -0.5000000   0.5000000   0.3333333), wk =   0.0185185

                       cryst. coord.
        k(    1) = (   0.0000000   0.0000000   0.0000000), wk =   0.0092593
        k(    2) = (   0.0000000   0.0000000   0.1666667), wk =   0.0185185
        k(    3) = (   0.0000000   0.0000000   0.3333333), wk =   0.0185185
        k(    4) = (   0.0000000   0.0000000  -0.5000000), wk =   0.0092593
        k(    5) = (   0.0000000   0.1666667   0.1666667), wk =   0.0370370
        k(    6) = (   0.0000000   0.1666667   0.3333333), wk =   0.0370370
        k(    7) = (   0.0000000   0.1666667  -0.5000000), wk =   0.0185185
        k(    8) = (   0.0000000   0.3333333   0.3333333), wk =   0.0370370
        k(    9) = (   0.0000000   0.3333333  -0.5000000), wk =   0.0185185
        k(   10) = (   0.0000000  -0.5000000  -0.5000000), wk =   0.0092593
        k(   11) = (   0.1666667   0.1666667   0.1666667), wk =   0.0740741
        k(   12) = (   0.1666667   0.1666667   0.3333333), wk =   0.0740741
        k(   13) = (   0.1666667   0.1666667  -0.5000000), wk =   0.0370370
        k(   14) = (   0.1666667   0.3333333   0.3333333), wk =   0.0740741
        k(   15) = (   0.1666667   0.3333333  -0.5000000), wk =   0.0370370
        k(   16) = (   0.1666667  -0.5000000  -0.5000000), wk =   0.0185185
        k(   17) = (   0.3333333   0.3333333   0.3333333), wk =   0.0740741
        k(   18) = (   0.3333333   0.3333333  -0.5000000), wk =   0.0370370
        k(   19) = (   0.3333333  -0.5000000  -0.5000000), wk =   0.0185185
        k(   20) = (  -0.5000000  -0.5000000  -0.5000000), wk =   0.0092593
        k(   21) = (   0.1666667   0.0000000   0.0000000), wk =   0.0185185
        k(   22) = (   0.0000000   0.1666667   0.0000000), wk =   0.0185185
        k(   23) = (   0.3333333   0.0000000   0.0000000), wk =   0.0185185
        k(   24) = (   0.0000000   0.3333333   0.0000000), wk =   0.0185185
        k(   25) = (  -0.5000000   0.0000000   0.0000000), wk =   0.0092593
        k(   26) = (   0.0000000  -0.5000000   0.0000000), wk =   0.0092593
        k(   27) = (   0.1666667   0.0000000  -0.1666667), wk =   0.0370370
        k(   28) = (   0.1666667  -0.1666667   0.0000000), wk =   0.0370370
        k(   29) = (   0.1666667   0.0000000  -0.3333333), wk =   0.0370370
        k(   30) = (   0.3333333  -0.1666667   0.0000000), wk =   0.0370370
        k(   31) = (   0.0000000   0.3333333   0.1666667), wk =   0.0370370
        k(   32) = (   0.1666667   0.3333333   0.0000000), wk =   0.0370370
        k(   33) = (   0.3333333   0.0000000   0.1666667), wk =   0.0370370
        k(   34) = (   0.1666667   0.0000000   0.5000000), wk =   0.0185185
        k(   35) = (  -0.5000000  -0.1666667   0.0000000), wk =   0.0185185
        k(   36) = (   0.0000000  -0.5000000   0.1666667), wk =   0.0185185
        k(   37) = (   0.1666667  -0.5000000   0.0000000), wk =   0.0185185
        k(   38) = (  -0.5000000   0.0000000   0.1666667), wk =   0.0185185
        k(   39) = (   0.3333333   0.0000000  -0.3333333), wk =   0.0370370
        k(   40) = (   0.3333333  -0.3333333   0.0000000), wk =   0.0370370
        k(   41) = (   0.3333333   0.0000000   0.5000000), wk =   0.0185185
        k(   42) = (  -0.5000000  -0.3333333   0.0000000), wk =   0.0185185
        k(   43) = (   0.0000000  -0.5000000   0.3333333), wk =   0.0185185
        k(   44) = (   0.3333333  -0.5000000   0.0000000), wk =   0.0185185
        k(   45) = (  -0.5000000   0.0000000   0.3333333), wk =   0.0185185
        k(   46) = (  -0.5000000   0.0000000   0.5000000), wk =   0.0092593
        k(   47) = (  -0.5000000   0.5000000   0.0000000), wk =   0.0092593
        k(   48) = (   0.3333333  -0.1666667   0.1666667), wk =   0.0740741
        k(   49) = (  -0.1666667   0.3333333   0.1666667), wk =   0.0740741
        k(   50) = (  -0.5000000  -0.1666667   0.1666667), wk =   0.0370370
        k(   51) = (  -0.1666667  -0.5000000   0.1666667), wk =   0.0370370
        k(   52) = (   0.3333333   0.1666667  -0.3333333), wk =   0.0740741
        k(   53) = (   0.3333333  -0.3333333   0.1666667), wk =   0.0740741
        k(   54) = (   0.3333333   0.1666667   0.5000000), wk =   0.0370370
        k(   55) = (  -0.5000000  -0.3333333   0.1666667), wk =   0.0370370
        k(   56) = (  -0.1666667  -0.5000000   0.3333333), wk =   0.0370370
        k(   57) = (   0.3333333  -0.5000000   0.1666667), wk =   0.0370370
        k(   58) = (  -0.5000000   0.1666667   0.3333333), wk =   0.0370370
        k(   59) = (  -0.5000000   0.1666667   0.5000000), wk =   0.0185185
        k(   60) = (  -0.5000000   0.5000000   0.1666667), wk =   0.0185185
        k(   61) = (  -0.5000000  -0.3333333   0.3333333), wk =   0.0370370
        k(   62) = (  -0.3333333  -0.5000000   0.3333333), wk =   0.0370370
        k(   63) = (  -0.5000000   0.3333333   0.5000000), wk =   0.0185185
        k(   64) = (  -0.5000000   0.5000000   0.3333333), wk =   0.0185185

     Dense  grid:   166605 G-vectors     FFT dimensions: (  72,  72,  72)

     Dynamical RAM for                 wfc:       8.59 MB

     Dynamical RAM for     wfc (w. buffer):     146.00 MB

     Dynamical RAM for           str. fact:      12.71 MB

     Dynamical RAM for           local pot:       0.00 MB

     Dynamical RAM for          nlocal pot:      24.17 MB

     Dynamical RAM for                qrad:      14.45 MB

     Dynamical RAM for          rho,v,vnew:      16.17 MB

     Dynamical RAM for               rhoin:       5.39 MB

     Dynamical RAM for            rho*nmix:      40.68 MB

     Dynamical RAM for           G-vectors:      10.80 MB

     Dynamical RAM for          h,s,v(r/c):       0.53 MB

     Dynamical RAM for          <psi|beta>:       0.03 MB

     Dynamical RAM for                 psi:      34.35 MB

     Dynamical RAM for                hpsi:      34.35 MB

     Dynamical RAM for                spsi:      34.35 MB

     Dynamical RAM for      wfcinit/wfcrot:      24.21 MB

     Dynamical RAM for           addusdens:     123.30 MB

     Dynamical RAM for          addusforce:     141.14 MB

     Dynamical RAM for         addusstress:     128.70 MB

     Estimated static dynamical RAM per process >     299.87 MB

     Estimated max dynamical RAM per process >     441.01 MB

     Estimated total dynamical RAM >       1.72 GB

SIRIUS version : 6.5.7
git hash       : https://api.github.com/repos/electronic-structure/SIRIUS/git/ref/tags/v6.5.7
git branch     : release v6.5.7
build time     : 2021-04-07 16:28:09
start time     : Sun,  7 Nov 2021 14:38:30

number of MPI ranks           : 4
MPI grid                      : 4 1 1
maximum number of OMP threads : 12
number of MPI ranks per node  : 1
page size (Kb)                : 4
number of pages               : 16460583
available memory (GB)         : 62

FFT context for density and potential
=====================================
  comm size                             : 4
  plane wave cutoff                     : 18.000000
  grid size                             : 72 72 72   total : 373248
  grid limits                           : -35 36   -35 36   -35 36
  number of G-vectors within the cutoff : 83303
  local number of G-vectors             : 20826
  number of G-shells                    : 974

FFT context for coarse grid
=====================================
  comm size                             : 1
  plane wave cutoff                     : 18.000000
  grid size                             : 72 72 72   total : 373248
  grid limits                           : -35 36   -35 36   -35 36
  number of G-vectors within the cutoff : 83303
  local number of G-vectors             : 20826
  number of G-shells                    : 974

number of local G-vector blocks: 1

Unit cell
--------------------------------------------------------------------------------
lattice vectors
  a1 :      11.9192585585       0.0000000000       0.0000000000 
  a2 :       0.0000000000      11.9192585585       0.0000000000 
  a3 :       0.0000000000       0.0000000000      11.9192585585 
reciprocal lattice vectors
  b1 :       0.5271456506       0.0000000000       0.0000000000 
  b2 :       0.0000000000       0.5271456506       0.0000000000 
  b3 :       0.0000000000       0.0000000000       0.5271456506 

unit cell volume :      1693.35386138 [a.u.^3]
1/sqrt(omega)    :         0.02430111
MT volume        : 0.000000 ( 0.00%)
IT volume        : 1693.353861 (100.00%)

number of atom types : 5
type id : 0   symbol :      mt_radius : 208.091314, num_atoms: 1
type id : 1   symbol :      mt_radius :  99.953801, num_atoms: 3
type id : 2   symbol :      mt_radius :  99.484316, num_atoms: 5
type id : 3   symbol :      mt_radius : 100.307506, num_atoms: 1
type id : 4   symbol :      mt_radius :  99.892025, num_atoms: 2
total number of atoms : 12
number of symmetry classes : 12
number of PAW atoms : 4

minimum bond length:       1.918706325514

number of pseudo wave-functions: 38

space group number   : 0
international symbol : n/a
Hall symbol          : n/a
number of operations : 1
transformation matrix : 
    1.000000     0.000000     0.000000 
    0.000000     1.000000     0.000000 
    0.000000     0.000000     1.000000 
origin shift : 
    0.000000     0.000000     0.000000

label          : Sn
--------------------------------------------------------------------------------
symbol         : 
name           : 
zn             : 14
mass           : 118.710000
mt_radius      : 208.091314
num_mt_points  : 891
grid_origin    : 0.000000
grid_name      : external

number of core electrons    : 0.000000
number of valence electrons : 14.000000

total number of radial functions : 6
lmax of radial functions         : 2
max. number of radial functions  : 2
total number of basis functions  : 18
number of aw basis functions     : 0
number of lo basis functions     : 18
lmax of beta-projectors          : 2
number of ps wavefunctions       : 3
charge augmentation              : true
Hubbard correction               : false
spin-orbit coupling              : false

label          : I
--------------------------------------------------------------------------------
symbol         : 
name           : 
zn             : 7
mass           : 126.904470
mt_radius      : 99.953801
num_mt_points  : 1247
grid_origin    : 0.000017
grid_name      : external

number of core electrons    : 0.000000
number of valence electrons : 7.000000

total number of radial functions : 4
lmax of radial functions         : 1
max. number of radial functions  : 2
total number of basis functions  : 8
number of aw basis functions     : 0
number of lo basis functions     : 8
lmax of beta-projectors          : 1
number of ps wavefunctions       : 2
charge augmentation              : true
Hubbard correction               : false
spin-orbit coupling              : false

label          : H
--------------------------------------------------------------------------------
symbol         : 
name           : 
zn             : 1
mass           : 1.008000
mt_radius      : 99.484316
num_mt_points  : 929
grid_origin    : 0.000912
grid_name      : external

number of core electrons    : 0.000000
number of valence electrons : 1.000000

total number of radial functions : 2
lmax of radial functions         : 0
max. number of radial functions  : 2
total number of basis functions  : 2
number of aw basis functions     : 0
number of lo basis functions     : 2
lmax of beta-projectors          : 0
number of ps wavefunctions       : 1
charge augmentation              : true
Hubbard correction               : false
spin-orbit coupling              : false

label          : C
--------------------------------------------------------------------------------
symbol         : 
name           : 
zn             : 4
mass           : 12.011000
mt_radius      : 100.307506
num_mt_points  : 1073
grid_origin    : 0.000152
grid_name      : external

number of core electrons    : 0.000000
number of valence electrons : 4.000000

total number of radial functions : 4
lmax of radial functions         : 1
max. number of radial functions  : 2
total number of basis functions  : 8
number of aw basis functions     : 0
number of lo basis functions     : 8
lmax of beta-projectors          : 1
number of ps wavefunctions       : 2
charge augmentation              : true
Hubbard correction               : false
spin-orbit coupling              : false

label          : N
--------------------------------------------------------------------------------
symbol         : 
name           : 
zn             : 5
mass           : 14.007000
mt_radius      : 99.892025
num_mt_points  : 1085
grid_origin    : 0.000130
grid_name      : external

number of core electrons    : 0.000000
number of valence electrons : 5.000000

total number of radial functions : 4
lmax of radial functions         : 1
max. number of radial functions  : 2
total number of basis functions  : 8
number of aw basis functions     : 0
number of lo basis functions     : 8
lmax of beta-projectors          : 1
number of ps wavefunctions       : 2
charge augmentation              : true
Hubbard correction               : false
spin-orbit coupling              : false

Basic information
--------------------------------------------------------------------------------
total nuclear charge               : 54
number of core electrons           : 0.000000
number of valence electrons        : 54.000000
total number of electrons          : 54.000000
extra charge                       : 0.000000
total number of aw basis functions : 0
total number of lo basis functions : 76
number of first-variational states : -1
number of bands                    : 27
number of spins                    : 1
number of magnetic dimensions      : 0
lmax_apw                           : -1
lmax_rho                           : 4
lmax_pot                           : 4
lmax_rf                            : 2
smearing width                     : 0.010000
cyclic block size                  : 16
|G+k| cutoff                       : 9.000000
valence relativity                 : zora
core relativity                    : Dirac
standard eigen-value solver        : cuSOLVER
generalized eigen-value solver     : cuSOLVER
processing unit                    : GPU
number of devices                  : 1
  name                             : Tesla P100-PCIE-16GB
  major                            : 6
  minor                            : 0
  clockRate                        : 1328500 kHz
  memoryClockRate                  : 715000 kHz
  memoryBusWidth                   : 4096 bits
  sharedMemPerBlock                : 48 kB
  totalConstMem                    : 64 kB
  totalGlobalMem                   : 16671616 kB
  available memory                 : 15872768 kB
  l2CacheSize                      : 4096 kB
  warpSize                         : 32
  regsPerBlock                     : 65536
  canMapHostMemory                 : 1
  concurrentKernels                : 1
  maxGridSize                      : 2147483647 65535 65535
  maxThreadsDim                    : 1024 1024 64
  maxThreadsPerBlock               : 1024
  maxThreadsPerMultiProcessor      : 2048
  multiProcessorCount              : 56
  pciBusID                         : 2
  pciDeviceID                      : 0
  pciDomainID                      : 0
  regsPerMultiprocessor            : 65536
  asyncEngineCount                 : 2
  ECCEnabled                       : 1
  memPitch                         : 2147483647

iterative solver                   : davidson
number of steps                    : 20
subspace size                      : 4

spglib version: 1.16.0
HDF5 version: 1.12.0
Libxc version: 4.3.4

XC functionals
==============

memory consumption
==================
approximate number of G+k vectors        : 20846
approximate number of G vectors          : 83384
approximate number of coarse G vectors   : 83384
approximate size of wave-functions for each k-point: 8 Mb, 8 Mb/rank
approximate memory consumption of Davidson solver: 146 Mb/rank
approximate memory consumption of charge density augmentation: 164 Mb/rank
approximate memory consumption of FFT transforms: 7 Mb/rank

     Check: negative core charge=   -0.000002

     Initial potential from superposition of free atoms

     starting charge   53.00000, renormalised to   54.00000

total number of k-points : 64
--------------------------------------------------------------------------------
  ik                vk                    weight  num_gkvec
--------------------------------------------------------------------------------
   0     0.0000   0.0000   0.0000       0.004630      20815
   1     0.0000   0.0000   0.1667       0.009259      20814
   2     0.0000   0.0000   0.3333       0.009259      20810
   3     0.0000   0.0000  -0.5000       0.004630      20842
   4     0.0000   0.1667   0.1667       0.018519      20824
   5     0.0000   0.1667   0.3333       0.018519      20837
   6     0.0000   0.1667  -0.5000       0.009259      20826
   7     0.0000   0.3333   0.3333       0.018519      20872
   8     0.0000   0.3333  -0.5000       0.009259      20870
   9     0.0000  -0.5000  -0.5000       0.004630      20808
  10     0.1667   0.1667   0.1667       0.037037      20888
  11     0.1667   0.1667   0.3333       0.037037      20835
  12     0.1667   0.1667  -0.5000       0.018519      20848
  13     0.1667   0.3333   0.3333       0.037037      20855
  14     0.1667   0.3333  -0.5000       0.018519      20856
  15     0.1667  -0.5000  -0.5000       0.009259      20824
  16     0.3333   0.3333   0.3333       0.037037      20852
  17     0.3333   0.3333  -0.5000       0.018519      20884
  18     0.3333  -0.5000  -0.5000       0.009259      20844
  19    -0.5000  -0.5000  -0.5000       0.004630      20840
  20     0.1667   0.0000   0.0000       0.009259      20814
  21     0.0000   0.1667   0.0000       0.009259      20814
  22     0.3333   0.0000   0.0000       0.009259      20810
  23     0.0000   0.3333   0.0000       0.009259      20810
  24    -0.5000   0.0000   0.0000       0.004630      20842
  25     0.0000  -0.5000   0.0000       0.004630      20842
  26     0.1667   0.0000  -0.1667       0.018519      20824
  27     0.1667  -0.1667   0.0000       0.018519      20824
  28     0.1667   0.0000  -0.3333       0.018519      20837
  29     0.3333  -0.1667   0.0000       0.018519      20837
  30     0.0000   0.3333   0.1667       0.018519      20837
  31     0.1667   0.3333   0.0000       0.018519      20837
  32     0.3333   0.0000   0.1667       0.018519      20837
  33     0.1667   0.0000   0.5000       0.009259      20826
  34    -0.5000  -0.1667   0.0000       0.009259      20826
  35     0.0000  -0.5000   0.1667       0.009259      20826
  36     0.1667  -0.5000   0.0000       0.009259      20826
  37    -0.5000   0.0000   0.1667       0.009259      20826
  38     0.3333   0.0000  -0.3333       0.018519      20872
  39     0.3333  -0.3333   0.0000       0.018519      20872
  40     0.3333   0.0000   0.5000       0.009259      20870
  41    -0.5000  -0.3333   0.0000       0.009259      20870
  42     0.0000  -0.5000   0.3333       0.009259      20870
  43     0.3333  -0.5000   0.0000       0.009259      20870
  44    -0.5000   0.0000   0.3333       0.009259      20870
  45    -0.5000   0.0000   0.5000       0.004630      20808
  46    -0.5000   0.5000   0.0000       0.004630      20808
  47     0.3333  -0.1667   0.1667       0.037037      20835
  48    -0.1667   0.3333   0.1667       0.037037      20835
  49    -0.5000  -0.1667   0.1667       0.018519      20848
  50    -0.1667  -0.5000   0.1667       0.018519      20848
  51     0.3333   0.1667  -0.3333       0.037037      20855
  52     0.3333  -0.3333   0.1667       0.037037      20855
  53     0.3333   0.1667   0.5000       0.018519      20856
  54    -0.5000  -0.3333   0.1667       0.018519      20856
  55    -0.1667  -0.5000   0.3333       0.018519      20856
  56     0.3333  -0.5000   0.1667       0.018519      20856
  57    -0.5000   0.1667   0.3333       0.018519      20856
  58    -0.5000   0.1667   0.5000       0.009259      20824
  59    -0.5000   0.5000   0.1667       0.009259      20824
  60    -0.5000  -0.3333   0.3333       0.018519      20884
  61    -0.3333  -0.5000   0.3333       0.018519      20884
  62    -0.5000   0.3333   0.5000       0.009259      20844
  63    -0.5000   0.5000   0.3333       0.009259      20844

     total cpu time spent up to now is       18.7 secs

     Self-consistent Calculation

     iteration #  1     ecut=    81.00 Ry     beta= 0.70
[solve] iterative solver tolerance:     0.005000000000
[solve] average number of iterations:     2.000000

     Threshold (ethr) on eigenvalues was too large:
     Diagonalizing with lowered threshold

[solve] iterative solver tolerance:     0.000481326782
[solve] average number of iterations:     0.000000

     total cpu time spent up to now is       20.0 secs

     total energy              =   -1346.14157296 Ry
     Harris-Foulkes estimate   =   -1346.43851272 Ry
     estimated scf accuracy    <       0.51983292 Ry
 
     Band energy sum           =     -28.70168754 Ry

     iteration #  2     ecut=    81.00 Ry     beta= 0.70
[solve] iterative solver tolerance:     0.000481326782
[solve] average number of iterations:     4.000000

     total cpu time spent up to now is       21.1 secs

     total energy              =   -1346.24566739 Ry
     Harris-Foulkes estimate   =   -1346.35058068 Ry
     estimated scf accuracy    <       0.18273838 Ry
 
     Band energy sum           =     -27.97551872 Ry

     iteration #  3     ecut=    81.00 Ry     beta= 0.70
[solve] iterative solver tolerance:     0.000169202206
[solve] average number of iterations:     4.000000

     total cpu time spent up to now is       22.2 secs

     total energy              =   -1346.29242390 Ry
     Harris-Foulkes estimate   =   -1346.30119522 Ry
     estimated scf accuracy    <       0.01874957 Ry
 
     Band energy sum           =     -28.08421707 Ry

     iteration #  4     ecut=    81.00 Ry     beta= 0.70
[solve] iterative solver tolerance:     0.000017360712
[solve] average number of iterations:     4.000000

     total cpu time spent up to now is       23.2 secs

     total energy              =   -1346.29670352 Ry
     Harris-Foulkes estimate   =   -1346.29804265 Ry
     estimated scf accuracy    <       0.00247956 Ry
 
     Band energy sum           =     -27.93244068 Ry

     iteration #  5     ecut=    81.00 Ry     beta= 0.70
[solve] iterative solver tolerance:     0.000002295891
[solve] average number of iterations:     4.000000

     total cpu time spent up to now is       24.3 secs

     total energy              =   -1346.29726208 Ry
     Harris-Foulkes estimate   =   -1346.29727713 Ry
     estimated scf accuracy    <       0.00004998 Ry
 
     Band energy sum           =     -28.02977394 Ry

     iteration #  6     ecut=    81.00 Ry     beta= 0.70
[solve] iterative solver tolerance:     0.000000046274
[solve] average number of iterations:     3.937500

     total cpu time spent up to now is       25.6 secs

     total energy              =   -1346.29728516 Ry
     Harris-Foulkes estimate   =   -1346.29729233 Ry
     estimated scf accuracy    <       0.00001522 Ry
 
     Band energy sum           =     -28.03247665 Ry

     iteration #  7     ecut=    81.00 Ry     beta= 0.70
[solve] iterative solver tolerance:     0.000000014092
[solve] average number of iterations:     3.000000

     total cpu time spent up to now is       26.5 secs

     End of self-consistent calculation

          k = 0.0000 0.0000 0.0000 ( 20815 PWs)   bands (ev):

   -18.6641 -18.6395 -18.6380 -18.6278 -18.6117 -18.2031 -15.8851 -10.0859
    -9.5193  -9.1425  -8.8441  -8.0438  -7.2853  -5.2796  -3.8841  -3.5950
    -2.9511  -1.3342  -1.0400  -1.0387  -0.1785   0.6894   0.7233   1.2663
     1.4132   1.5744   1.5926

     occupation numbers 
     1.0000   1.0000   1.0000   1.0000   1.0000   1.0000   1.0000   1.0000
     1.0000   1.0000   1.0000   1.0000   1.0000   1.0000   1.0000   1.0000
     1.0000   1.0000   1.0000   1.0000   1.0000   1.0000   1.0000   1.0000
     1.0000   1.0000   1.0000

          k = 0.0000 0.0000 0.1667 ( 20814 PWs)   bands (ev):

   -18.6637 -18.6395 -18.6380 -18.6278 -18.6117 -18.2030 -15.8850 -10.0631
    -9.5103  -9.1774  -8.8458  -8.0486  -7.2852  -5.2793  -3.8889  -3.5821
    -3.2434  -1.0089  -1.0018  -0.7969  -0.1883   0.6015   0.6442   1.2618
     1.3824   1.5698   1.6283

     occupation numbers 
     1.0000   1.0000   1.0000   1.0000   1.0000   1.0000   1.0000   1.0000
     1.0000   1.0000   1.0000   1.0000   1.0000   1.0000   1.0000   1.0000
     1.0000   1.0000   1.0000   1.0000   1.0000   1.0000   1.0000   1.0000
     1.0000   1.0000   1.0000

          k = 0.0000 0.0000 0.3333 ( 20810 PWs)   bands (ev):

   -18.6628 -18.6396 -18.6381 -18.6278 -18.6117 -18.2029 -15.8850 -10.0126
    -9.4844  -9.2603  -8.8494  -8.0577  -7.2849  -5.2788  -3.8967  -3.6201
    -3.5509  -0.9475  -0.9135  -0.1863   0.1732   0.4280   0.4637   1.2602
     1.3585   1.5585   1.7020

     occupation numbers 
     1.0000   1.0000   1.0000   1.0000   1.0000   1.0000   1.0000   1.0000
     1.0000   1.0000   1.0000   1.0000   1.0000   1.0000   1.0000   1.0000
     1.0000   1.0000   1.0000   1.0000   1.0000   1.0000   1.0000   1.0000
     1.0000   1.0000   1.0000

          k = 0.0000 0.0000-0.5000 ( 20842 PWs)   bands (ev):

   -18.6624 -18.6396 -18.6381 -18.6278 -18.6117 -18.2029 -15.8849  -9.9843
    -9.4605  -9.3160  -8.8512  -8.0620  -7.2848  -5.2785  -3.8971  -3.7599
    -3.5409  -0.9163  -0.8610  -0.1659   0.3122   0.3548   0.6903   1.2661
     1.4613   1.5524   1.7393

     occupation numbers 
     1.0000   1.0000   1.0000   1.0000   1.0000   1.0000   1.0000   1.0000
     1.0000   1.0000   1.0000   1.0000   1.0000   1.0000   1.0000   1.0000
     1.0000   1.0000   1.0000   1.0000   1.0000   1.0000   1.0000   1.0000
     1.0000   1.0000   1.0000

          k = 0.0000 0.1667 0.1667 ( 20824 PWs)   bands (ev):

   -18.6636 -18.6396 -18.6380 -18.6275 -18.6117 -18.2028 -15.8849 -10.0511
    -9.5209  -9.1661  -8.8702  -8.0374  -7.2871  -5.2818  -3.8787  -3.5812
    -3.4574  -0.9769  -0.8904  -0.4865  -0.1924   0.6095   0.6707   1.2486
     1.3697   1.5599   1.5626

     occupation numbers 
     1.0000   1.0000   1.0000   1.0000   1.0000   1.0000   1.0000   1.0000
     1.0000   1.0000   1.0000   1.0000   1.0000   1.0000   1.0000   1.0000
     1.0000   1.0000   1.0000   1.0000   1.0000   1.0000   1.0000   1.0000
     1.0000   1.0000   1.0000

          k = 0.0000 0.1667 0.3333 ( 20837 PWs)   bands (ev):

   -18.6627 -18.6396 -18.6381 -18.6275 -18.6117 -18.2027 -15.8848 -10.0045
    -9.4961  -9.2383  -8.8762  -8.0476  -7.2868  -5.2812  -3.8919  -3.8014
    -3.5538  -0.9106  -0.5435  -0.2025   0.1323   0.4869   0.4907   1.2978
     1.3446   1.5823   1.6409

     occupation numbers 
     1.0000   1.0000   1.0000   1.0000   1.0000   1.0000   1.0000   1.0000
     1.0000   1.0000   1.0000   1.0000   1.0000   1.0000   1.0000   1.0000
     1.0000   1.0000   1.0000   1.0000   1.0000   1.0000   1.0000   1.0000
     1.0000   1.0000   1.0000

          k = 0.0000 0.1667-0.5000 ( 20826 PWs)   bands (ev):

   -18.6623 -18.6396 -18.6381 -18.6275 -18.6117 -18.2027 -15.8848  -9.9787
    -9.4773  -9.2835  -8.8793  -8.0525  -7.2867  -5.2809  -3.9486  -3.8810
    -3.5428  -0.8765  -0.4513  -0.1912   0.1838   0.3850   0.7975   1.3181
     1.3748   1.6707   1.6815

     occupation numbers 
     1.0000   1.0000   1.0000   1.0000   1.0000   1.0000   1.0000   1.0000
     1.0000   1.0000   1.0000   1.0000   1.0000   1.0000   1.0000   1.0000
     1.0000   1.0000   1.0000   1.0000   1.0000   1.0000   1.0000   1.0000
     1.0000   1.0000   1.0000

          k = 0.0000 0.3333 0.3333 ( 20872 PWs)   bands (ev):

   -18.6625 -18.6397 -18.6381 -18.6270 -18.6117 -18.2023 -15.8846  -9.9870
    -9.5255  -9.1668  -8.9518  -8.0284  -7.2907  -5.2859  -4.1181  -3.8446
    -3.5555  -0.8256  -0.2461  -0.0191   0.0526   0.5465   0.8171   1.2779
     1.3921   1.5218   1.7575

     occupation numbers 
     1.0000   1.0000   1.0000   1.0000   1.0000   1.0000   1.0000   1.0000
     1.0000   1.0000   1.0000   1.0000   1.0000   1.0000   1.0000   1.0000
     1.0000   1.0000   1.0000   1.0000   1.0000   1.0000   1.0000   1.0000
     1.0000   1.0000   1.0000

          k = 0.0000 0.3333-0.5000 ( 20870 PWs)   bands (ev):

   -18.6621 -18.6397 -18.6381 -18.6270 -18.6117 -18.2023 -15.8846  -9.9667
    -9.5109  -9.1953  -8.9587  -8.0342  -7.2905  -5.2856  -4.2461  -3.8475
    -3.5467  -0.7808  -0.2581   0.0143   0.3668   0.4469   0.9019   1.2498
     1.4543   1.5698   1.9857

     occupation numbers 
     1.0000   1.0000   1.0000   1.0000   1.0000   1.0000   1.0000   1.0000
     1.0000   1.0000   1.0000   1.0000   1.0000   1.0000   1.0000   1.0000
     1.0000   1.0000   1.0000   1.0000   1.0000   1.0000   1.0000   1.0000
     1.0000   1.0000   1.0000

          k = 0.0000-0.5000-0.5000 ( 20808 PWs)   bands (ev):

   -18.6620 -18.6397 -18.6381 -18.6267 -18.6117 -18.2020 -15.8844  -9.9603
    -9.5278  -9.0925  -9.0572  -8.0255  -7.2924  -5.2879  -4.3701  -3.8301
    -3.5487  -0.7185  -0.3060  -0.0543   0.4785   0.8140   0.9310   1.1359
     1.5158   1.5350   2.4301

     occupation numbers 
     1.0000   1.0000   1.0000   1.0000   1.0000   1.0000   1.0000   1.0000
     1.0000   1.0000   1.0000   1.0000   1.0000   1.0000   1.0000   1.0000
     1.0000   1.0000   1.0000   1.0000   1.0000   1.0000   1.0000   1.0000
     1.0000   1.0000   1.0000

          k = 0.1667 0.1667 0.1667 ( 20888 PWs)   bands (ev):

   -18.6635 -18.6396 -18.6381 -18.6272 -18.6117 -18.2000 -15.8937 -10.0097
    -9.5275  -9.1537  -8.8967  -8.0144  -7.2870  -5.3551  -3.8808  -3.6568
    -3.5692  -0.9138  -0.6905  -0.4058  -0.1436   0.5864   0.7350   1.2957
     1.3521   1.3838   1.6904

     occupation numbers 
     1.0000   1.0000   1.0000   1.0000   1.0000   1.0000   1.0000   1.0000
     1.0000   1.0000   1.0000   1.0000   1.0000   1.0000   1.0000   1.0000
     1.0000   1.0000   1.0000   1.0000   1.0000   1.0000   1.0000   1.0000
     1.0000   1.0000   1.0000

          k = 0.1667 0.1667 0.3333 ( 20835 PWs)   bands (ev):

   -18.6626 -18.6396 -18.6381 -18.6272 -18.6117 -18.1999 -15.8936  -9.9655
    -9.5089  -9.2165  -8.9000  -8.0226  -7.2872  -5.3575  -4.0037  -3.8685
    -3.5553  -0.6088  -0.4727  -0.2455   0.1744   0.3706   0.6969   1.2996
     1.3577   1.4715   1.7206

     occupation numbers 
     1.0000   1.0000   1.0000   1.0000   1.0000   1.0000   1.0000   1.0000
     1.0000   1.0000   1.0000   1.0000   1.0000   1.0000   1.0000   1.0000
     1.0000   1.0000   1.0000   1.0000   1.0000   1.0000   1.0000   1.0000
     1.0000   1.0000   1.0000

          k = 0.1667 0.1667-0.5000 ( 20848 PWs)   bands (ev):

   -18.6622 -18.6396 -18.6381 -18.6272 -18.6117 -18.1998 -15.8935  -9.9411
    -9.4959  -9.2541  -8.9017  -8.0266  -7.2873  -5.3585  -4.1263  -3.8794
    -3.5479  -0.5689  -0.3911  -0.1244   0.1745   0.2873   0.9432   1.2897
     1.3687   1.6547   1.7354

     occupation numbers 
     1.0000   1.0000   1.0000   1.0000   1.0000   1.0000   1.0000   1.0000
     1.0000   1.0000   1.0000   1.0000   1.0000   1.0000   1.0000   1.0000
     1.0000   1.0000   1.0000   1.0000   1.0000   1.0000   1.0000   1.0000
     1.0000   1.0000   1.0000

          k = 0.1667 0.3333 0.3333 ( 20855 PWs)   bands (ev):

   -18.6624 -18.6396 -18.6381 -18.6267 -18.6117 -18.1995 -15.8932  -9.9525
    -9.5333  -9.1511  -8.9638  -8.0118  -7.2847  -5.3574  -4.2894  -3.8407
    -3.5574  -0.4816  -0.2673  -0.0071   0.1034   0.4368   0.8970   1.2704
     1.4131   1.5547   1.8184

     occupation numbers 
     1.0000   1.0000   1.0000   1.0000   1.0000   1.0000   1.0000   1.0000
     1.0000   1.0000   1.0000   1.0000   1.0000   1.0000   1.0000   1.0000
     1.0000   1.0000   1.0000   1.0000   1.0000   1.0000   1.0000   1.0000
     1.0000   1.0000   1.0000

          k = 0.1667 0.3333-0.5000 ( 20856 PWs)   bands (ev):

   -18.6620 -18.6397 -18.6381 -18.6267 -18.6117 -18.1995 -15.8931  -9.9337
    -9.5231  -9.1738  -8.9681  -8.0170  -7.2849  -5.3587  -4.4161  -3.8427
    -3.5524  -0.4412  -0.1926   0.0249   0.2815   0.3897   1.1146   1.1157
     1.4632   1.6873   2.0050

     occupation numbers 
     1.0000   1.0000   1.0000   1.0000   1.0000   1.0000   1.0000   1.0000
     1.0000   1.0000   1.0000   1.0000   1.0000   1.0000   1.0000   1.0000
     1.0000   1.0000   1.0000   1.0000   1.0000   1.0000   1.0000   1.0000
     1.0000   1.0000   1.0000

          k = 0.1667-0.5000-0.5000 ( 20824 PWs)   bands (ev):

   -18.6619 -18.6397 -18.6381 -18.6264 -18.6118 -18.1993 -15.8929  -9.9297
    -9.5367  -9.0789  -9.0561  -8.0126  -7.2836  -5.3587  -4.5388  -3.8238
    -3.5547  -0.3334  -0.2760  -0.0423   0.2891   0.8203   0.9854   1.1670
     1.5343   1.6790   2.4734

     occupation numbers 
     1.0000   1.0000   1.0000   1.0000   1.0000   1.0000   1.0000   1.0000
     1.0000   1.0000   1.0000   1.0000   1.0000   1.0000   1.0000   1.0000
     1.0000   1.0000   1.0000   1.0000   1.0000   1.0000   1.0000   1.0000
     1.0000   1.0000   1.0000

          k = 0.3333 0.3333 0.3333 ( 20852 PWs)   bands (ev):

   -18.6623 -18.6396 -18.6381 -18.6261 -18.6118 -18.1939 -15.9102  -9.8700
    -9.5666  -9.1080  -8.9972  -7.9670  -7.2790  -5.5012  -4.5732  -3.8329
    -3.5612  -0.3239   0.0189   0.0746   0.1337   0.5147   0.8084   1.4307
     1.4867   1.7748   1.8959

     occupation numbers 
     1.0000   1.0000   1.0000   1.0000   1.0000   1.0000   1.0000   1.0000
     1.0000   1.0000   1.0000   1.0000   1.0000   1.0000   1.0000   1.0000
     1.0000   1.0000   1.0000   1.0000   1.0000   1.0000   1.0000   1.0000
     1.0000   1.0000   1.0000

          k = 0.3333 0.3333-0.5000 ( 20884 PWs)   bands (ev):

   -18.6618 -18.6397 -18.6382 -18.6261 -18.6118 -18.1938 -15.9101  -9.8549
    -9.5628  -9.1194  -8.9977  -7.9702  -7.2799  -5.5057  -4.7002  -3.8343
    -3.5637  -0.2393   0.0413   0.0968   0.4228   0.4712   0.8854   1.3596
     1.5384   1.8935   2.1548

     occupation numbers 
     1.0000   1.0000   1.0000   1.0000   1.0000   1.0000   1.0000   1.0000
     1.0000   1.0000   1.0000   1.0000   1.0000   1.0000   1.0000   1.0000
     1.0000   1.0000   1.0000   1.0000   1.0000   1.0000   1.0000   1.0000
     1.0000   1.0000   1.0000

          k = 0.3333-0.5000-0.5000 ( 20844 PWs)   bands (ev):

   -18.6617 -18.6397 -18.6382 -18.6259 -18.6118 -18.1937 -15.9097  -9.8568
    -9.5696  -9.0538  -9.0508  -7.9719  -7.2746  -5.5012  -4.8242  -3.8114
    -3.5667  -0.2318  -0.0216   0.0737   0.4946   0.7743   0.8686   1.4961
     1.5341   1.9273   2.6705

     occupation numbers 
     1.0000   1.0000   1.0000   1.0000   1.0000   1.0000   1.0000   1.0000
     1.0000   1.0000   1.0000   1.0000   1.0000   1.0000   1.0000   1.0000
     1.0000   1.0000   1.0000   1.0000   1.0000   1.0000   1.0000   1.0000
     1.0000   1.0000   1.0000

          k =-0.5000-0.5000-0.5000 ( 20840 PWs)   bands (ev):

   -18.6616 -18.6397 -18.6382 -18.6256 -18.6118 -18.1909 -15.9181  -9.8078
    -9.6005  -9.0527  -9.0362  -7.9428  -7.2758  -5.5728  -4.9491  -3.8054
    -3.5727  -0.1977  -0.0127  -0.0069   0.6794   0.7484   1.1184   1.5336
     1.6493   2.0496   3.1968

     occupation numbers 
     1.0000   1.0000   1.0000   1.0000   1.0000   1.0000   1.0000   1.0000
     1.0000   1.0000   1.0000   1.0000   1.0000   1.0000   1.0000   1.0000
     1.0000   1.0000   1.0000   1.0000   1.0000   1.0000   1.0000   1.0000
     1.0000   1.0000   1.0000

          k = 0.1667 0.0000 0.0000 ( 20814 PWs)   bands (ev):

   -18.6640 -18.6395 -18.6380 -18.6275 -18.6117 -18.2002 -15.8940 -10.0417
    -9.5257  -9.1330  -8.8747  -8.0181  -7.2882  -5.3540  -3.8829  -3.5838
    -3.2047  -1.3402  -1.0163  -0.5840  -0.2153   0.6890   0.7927   1.2956
     1.4001   1.5032   1.5750

     occupation numbers 
     1.0000   1.0000   1.0000   1.0000   1.0000   1.0000   1.0000   1.0000
     1.0000   1.0000   1.0000   1.0000   1.0000   1.0000   1.0000   1.0000
     1.0000   1.0000   1.0000   1.0000   1.0000   1.0000   1.0000   1.0000
     1.0000   1.0000   1.0000

          k = 0.0000 0.1667 0.0000 ( 20814 PWs)   bands (ev):

   -18.6640 -18.6395 -18.6380 -18.6275 -18.6117 -18.2029 -15.8850 -10.0724
    -9.5303  -9.1351  -8.8672  -8.0321  -7.2873  -5.2821  -3.8740  -3.5910
    -3.2060  -1.3190  -1.0085  -0.5951  -0.1776   0.7226   0.7507   1.2091
     1.3955   1.5202   1.5599

     occupation numbers 
     1.0000   1.0000   1.0000   1.0000   1.0000   1.0000   1.0000   1.0000
     1.0000   1.0000   1.0000   1.0000   1.0000   1.0000   1.0000   1.0000
     1.0000   1.0000   1.0000   1.0000   1.0000   1.0000   1.0000   1.0000
     1.0000   1.0000   1.0000

          k = 0.3333 0.0000 0.0000 ( 20810 PWs)   bands (ev):

   -18.6639 -18.6395 -18.6381 -18.6269 -18.6117 -18.1944 -15.9118  -9.9364
    -9.5575  -9.0989  -8.9496  -7.9612  -7.2949  -5.5038  -3.8810  -3.5609
    -3.5532  -1.3584  -0.9655  -0.2651   0.1166   0.7225   1.0369   1.1870
     1.3594   1.5271   1.6278

     occupation numbers 
     1.0000   1.0000   1.0000   1.0000   1.0000   1.0000   1.0000   1.0000
     1.0000   1.0000   1.0000   1.0000   1.0000   1.0000   1.0000   1.0000
     1.0000   1.0000   1.0000   1.0000   1.0000   1.0000   1.0000   1.0000
     1.0000   1.0000   1.0000

          k = 0.0000 0.3333 0.0000 ( 20810 PWs)   bands (ev):

   -18.6638 -18.6396 -18.6380 -18.6270 -18.6117 -18.2025 -15.8847 -10.0423
    -9.5605  -9.0959  -8.9317  -8.0104  -7.2912  -5.2870  -3.8503  -3.5828
    -3.5569  -1.2872  -0.9447  -0.1759   0.0278   0.8081   0.9915   1.0880
     1.3712   1.3737   1.6129

     occupation numbers 
     1.0000   1.0000   1.0000   1.0000   1.0000   1.0000   1.0000   1.0000
     1.0000   1.0000   1.0000   1.0000   1.0000   1.0000   1.0000   1.0000
     1.0000   1.0000   1.0000   1.0000   1.0000   1.0000   1.0000   1.0000
     1.0000   1.0000   1.0000

          k =-0.5000 0.0000 0.0000 ( 20842 PWs)   bands (ev):

   -18.6638 -18.6395 -18.6381 -18.6267 -18.6117 -18.1915 -15.9207  -9.8660
    -9.5925  -9.0450  -9.0228  -7.9295  -7.2987  -5.5800  -3.8763  -3.6929
    -3.5490  -1.3706  -0.9382  -0.2794   0.3284   0.7354   1.1207   1.2134
     1.2859   1.5967   1.9161

     occupation numbers 
     1.0000   1.0000   1.0000   1.0000   1.0000   1.0000   1.0000   1.0000
     1.0000   1.0000   1.0000   1.0000   1.0000   1.0000   1.0000   1.0000
     1.0000   1.0000   1.0000   1.0000   1.0000   1.0000   1.0000   1.0000
     1.0000   1.0000   1.0000

          k = 0.0000-0.5000 0.0000 ( 20842 PWs)   bands (ev):

   -18.6637 -18.6396 -18.6380 -18.6267 -18.6117 -18.2023 -15.8846 -10.0253
    -9.5797  -9.0255  -9.0119  -8.0005  -7.2931  -5.2895  -3.8312  -3.6995
    -3.5788  -1.2705  -0.9106  -0.1751   0.1698   0.8390   1.0270   1.2050
     1.2983   1.3613   1.9065

     occupation numbers 
     1.0000   1.0000   1.0000   1.0000   1.0000   1.0000   1.0000   1.0000
     1.0000   1.0000   1.0000   1.0000   1.0000   1.0000   1.0000   1.0000
     1.0000   1.0000   1.0000   1.0000   1.0000   1.0000   1.0000   1.0000
     1.0000   1.0000   1.0000

          k = 0.1667 0.0000-0.1667 ( 20824 PWs)   bands (ev):

   -18.6636 -18.6395 -18.6381 -18.6275 -18.6117 -18.2002 -15.8939 -10.0198
    -9.5185  -9.1645  -8.8757  -8.0217  -7.2883  -5.3552  -3.8891  -3.5760
    -3.4570  -0.9773  -0.9029  -0.5470  -0.1509   0.5991   0.7033   1.3078
     1.3705   1.4978   1.6101

     occupation numbers 
     1.0000   1.0000   1.0000   1.0000   1.0000   1.0000   1.0000   1.0000
     1.0000   1.0000   1.0000   1.0000   1.0000   1.0000   1.0000   1.0000
     1.0000   1.0000   1.0000   1.0000   1.0000   1.0000   1.0000   1.0000
     1.0000   1.0000   1.0000

          k = 0.1667-0.1667 0.0000 ( 20824 PWs)   bands (ev):

   -18.6639 -18.6395 -18.6380 -18.6272 -18.6117 -18.2000 -15.8938 -10.0300
    -9.5349  -9.1263  -8.8951  -8.0102  -7.2869  -5.3538  -3.8725  -3.5804
    -3.4278  -1.3184  -0.7303  -0.4304  -0.2269   0.7021   0.8200   1.2718
     1.3550   1.3552   1.6744

     occupation numbers 
     1.0000   1.0000   1.0000   1.0000   1.0000   1.0000   1.0000   1.0000
     1.0000   1.0000   1.0000   1.0000   1.0000   1.0000   1.0000   1.0000
     1.0000   1.0000   1.0000   1.0000   1.0000   1.0000   1.0000   1.0000
     1.0000   1.0000   1.0000

          k = 0.1667 0.0000-0.3333 ( 20837 PWs)   bands (ev):

   -18.6627 -18.6396 -18.6381 -18.6275 -18.6117 -18.2001 -15.8938  -9.9716
    -9.4985  -9.2380  -8.8777  -8.0285  -7.2884  -5.3574  -3.9034  -3.8026
    -3.5542  -0.8868  -0.5867  -0.2415   0.1825   0.4435   0.5903   1.2960
     1.3820   1.4856   1.6752

     occupation numbers 
     1.0000   1.0000   1.0000   1.0000   1.0000   1.0000   1.0000   1.0000
     1.0000   1.0000   1.0000   1.0000   1.0000   1.0000   1.0000   1.0000
     1.0000   1.0000   1.0000   1.0000   1.0000   1.0000   1.0000   1.0000
     1.0000   1.0000   1.0000

          k = 0.3333-0.1667 0.0000 ( 20837 PWs)   bands (ev):

   -18.6638 -18.6395 -18.6381 -18.6267 -18.6117 -18.1943 -15.9114  -9.9286
    -9.5634  -9.0951  -8.9623  -7.9597  -7.2885  -5.4982  -3.8737  -3.7477
    -3.5586  -1.3229  -0.5990  -0.2985   0.1429   0.7252   0.9276   1.1764
     1.3949   1.4777   1.7425

     occupation numbers 
     1.0000   1.0000   1.0000   1.0000   1.0000   1.0000   1.0000   1.0000
     1.0000   1.0000   1.0000   1.0000   1.0000   1.0000   1.0000   1.0000
     1.0000   1.0000   1.0000   1.0000   1.0000   1.0000   1.0000   1.0000
     1.0000   1.0000   1.0000

          k = 0.0000 0.3333 0.1667 ( 20837 PWs)   bands (ev):

   -18.6634 -18.6396 -18.6380 -18.6270 -18.6117 -18.2024 -15.8847 -10.0247
    -9.5499  -9.1176  -8.9383  -8.0165  -7.2910  -5.2867  -3.8642  -3.7700
    -3.5730  -0.9074  -0.8353  -0.2035   0.0258   0.7255   0.8771   1.2272
     1.3386   1.4236   1.6421

     occupation numbers 
     1.0000   1.0000   1.0000   1.0000   1.0000   1.0000   1.0000   1.0000
     1.0000   1.0000   1.0000   1.0000   1.0000   1.0000   1.0000   1.0000
     1.0000   1.0000   1.0000   1.0000   1.0000   1.0000   1.0000   1.0000
     1.0000   1.0000   1.0000

          k = 0.1667 0.3333 0.0000 ( 20837 PWs)   bands (ev):

   -18.6638 -18.6396 -18.6380 -18.6267 -18.6117 -18.1997 -15.8934 -10.0042
    -9.5591  -9.0931  -8.9511  -7.9959  -7.2843  -5.3533  -3.8558  -3.7471
    -3.5734  -1.2713  -0.5708  -0.2538   0.0564   0.7927   0.9139   1.1884
     1.3064   1.3813   1.7409

     occupation numbers 
     1.0000   1.0000   1.0000   1.0000   1.0000   1.0000   1.0000   1.0000
     1.0000   1.0000   1.0000   1.0000   1.0000   1.0000   1.0000   1.0000
     1.0000   1.0000   1.0000   1.0000   1.0000   1.0000   1.0000   1.0000
     1.0000   1.0000   1.0000

          k = 0.3333 0.0000 0.1667 ( 20837 PWs)   bands (ev):

   -18.6634 -18.6395 -18.6381 -18.6269 -18.6117 -18.1944 -15.9117  -9.9165
    -9.5546  -9.1198  -8.9518  -7.9624  -7.2951  -5.5080  -3.8941  -3.7727
    -3.5586  -0.9404  -0.9222  -0.2228   0.1397   0.6371   0.9566   1.3180
     1.3515   1.4338   1.6680

     occupation numbers 
     1.0000   1.0000   1.0000   1.0000   1.0000   1.0000   1.0000   1.0000
     1.0000   1.0000   1.0000   1.0000   1.0000   1.0000   1.0000   1.0000
     1.0000   1.0000   1.0000   1.0000   1.0000   1.0000   1.0000   1.0000
     1.0000   1.0000   1.0000

          k = 0.1667 0.0000 0.5000 ( 20826 PWs)   bands (ev):

   -18.6623 -18.6396 -18.6381 -18.6275 -18.6117 -18.2000 -15.8937  -9.9446
    -9.4822  -9.2839  -8.8787  -8.0317  -7.2884  -5.3584  -3.9469  -3.8974
    -3.5456  -0.8327  -0.5618  -0.1084   0.2176   0.3701   0.7953   1.3404
     1.4728   1.4818   1.7312

     occupation numbers 
     1.0000   1.0000   1.0000   1.0000   1.0000   1.0000   1.0000   1.0000
     1.0000   1.0000   1.0000   1.0000   1.0000   1.0000   1.0000   1.0000
     1.0000   1.0000   1.0000   1.0000   1.0000   1.0000   1.0000   1.0000
     1.0000   1.0000   1.0000

          k =-0.5000-0.1667 0.0000 ( 20826 PWs)   bands (ev):

   -18.6637 -18.6395 -18.6381 -18.6264 -18.6118 -18.1913 -15.9202  -9.8604
    -9.5972  -9.0420  -9.0317  -7.9305  -7.2908  -5.5716  -3.8904  -3.8594
    -3.5474  -1.3284  -0.5620  -0.3226   0.3214   0.7440   0.9120   1.1095
     1.5519   1.6218   1.9627

     occupation numbers 
     1.0000   1.0000   1.0000   1.0000   1.0000   1.0000   1.0000   1.0000
     1.0000   1.0000   1.0000   1.0000   1.0000   1.0000   1.0000   1.0000
     1.0000   1.0000   1.0000   1.0000   1.0000   1.0000   1.0000   1.0000
     1.0000   1.0000   1.0000

          k = 0.0000-0.5000 0.1667 ( 20826 PWs)   bands (ev):

   -18.6633 -18.6396 -18.6380 -18.6267 -18.6117 -18.2022 -15.8845 -10.0099
    -9.5680  -9.0333  -9.0298  -8.0069  -7.2930  -5.2891  -3.9179  -3.8307
    -3.5712  -0.8694  -0.8123  -0.2112   0.0997   0.7541   1.1059   1.2419
     1.3121   1.3553   1.9544

     occupation numbers 
     1.0000   1.0000   1.0000   1.0000   1.0000   1.0000   1.0000   1.0000
     1.0000   1.0000   1.0000   1.0000   1.0000   1.0000   1.0000   1.0000
     1.0000   1.0000   1.0000   1.0000   1.0000   1.0000   1.0000   1.0000
     1.0000   1.0000   1.0000

          k = 0.1667-0.5000 0.0000 ( 20826 PWs)   bands (ev):

   -18.6637 -18.6396 -18.6380 -18.6264 -18.6118 -18.1995 -15.8931  -9.9898
    -9.5743  -9.0380  -9.0154  -7.9895  -7.2829  -5.3530  -3.8954  -3.8252
    -3.5699  -1.2457  -0.5236  -0.2696   0.1756   0.8286   0.9152   1.1386
     1.2930   1.6228   1.9544

     occupation numbers 
     1.0000   1.0000   1.0000   1.0000   1.0000   1.0000   1.0000   1.0000
     1.0000   1.0000   1.0000   1.0000   1.0000   1.0000   1.0000   1.0000
     1.0000   1.0000   1.0000   1.0000   1.0000   1.0000   1.0000   1.0000
     1.0000   1.0000   1.0000

          k =-0.5000 0.0000 0.1667 ( 20826 PWs)   bands (ev):

   -18.6634 -18.6395 -18.6381 -18.6267 -18.6117 -18.1914 -15.9205  -9.8468
    -9.5923  -9.0438  -9.0422  -7.9295  -7.2989  -5.5857  -3.9113  -3.8837
    -3.5515  -0.9639  -0.8954  -0.1791   0.2593   0.6478   1.1377   1.2779
     1.3211   1.4965   1.9658

     occupation numbers 
     1.0000   1.0000   1.0000   1.0000   1.0000   1.0000   1.0000   1.0000
     1.0000   1.0000   1.0000   1.0000   1.0000   1.0000   1.0000   1.0000
     1.0000   1.0000   1.0000   1.0000   1.0000   1.0000   1.0000   1.0000
     1.0000   1.0000   1.0000

          k = 0.3333 0.0000-0.3333 ( 20872 PWs)   bands (ev):

   -18.6626 -18.6396 -18.6381 -18.6269 -18.6117 -18.1943 -15.9114  -9.8732
    -9.5470  -9.1688  -8.9547  -7.9646  -7.2956  -5.5157  -4.1138  -3.8932
    -3.5559  -0.8294  -0.3431   0.0365   0.1684   0.4607   0.9694   1.2912
     1.3383   1.4711   1.7786

     occupation numbers 
     1.0000   1.0000   1.0000   1.0000   1.0000   1.0000   1.0000   1.0000
     1.0000   1.0000   1.0000   1.0000   1.0000   1.0000   1.0000   1.0000
     1.0000   1.0000   1.0000   1.0000   1.0000   1.0000   1.0000   1.0000
     1.0000   1.0000   1.0000

          k = 0.3333-0.3333 0.0000 ( 20872 PWs)   bands (ev):

   -18.6636 -18.6396 -18.6381 -18.6261 -18.6118 -18.1940 -15.9106  -9.9121
    -9.5771  -9.0787  -8.9949  -7.9573  -7.2761  -5.4869  -4.0759  -3.8269
    -3.5540  -1.2415  -0.3776  -0.0520   0.1976   0.7525   0.8335   1.1554
     1.3857   1.6851   1.8954

     occupation numbers 
     1.0000   1.0000   1.0000   1.0000   1.0000   1.0000   1.0000   1.0000
     1.0000   1.0000   1.0000   1.0000   1.0000   1.0000   1.0000   1.0000
     1.0000   1.0000   1.0000   1.0000   1.0000   1.0000   1.0000   1.0000
     1.0000   1.0000   1.0000

          k = 0.3333 0.0000 0.5000 ( 20870 PWs)   bands (ev):

   -18.6621 -18.6396 -18.6382 -18.6269 -18.6117 -18.1942 -15.9113  -9.8494
    -9.5417  -9.1978  -8.9557  -7.9656  -7.2958  -5.5192  -4.2424  -3.9016
    -3.5548  -0.7720  -0.2427   0.1328   0.3655   0.3919   0.9155   1.3276
     1.3523   1.5203   2.0068

     occupation numbers 
     1.0000   1.0000   1.0000   1.0000   1.0000   1.0000   1.0000   1.0000
     1.0000   1.0000   1.0000   1.0000   1.0000   1.0000   1.0000   1.0000
     1.0000   1.0000   1.0000   1.0000   1.0000   1.0000   1.0000   1.0000
     1.0000   1.0000   1.0000

          k =-0.5000-0.3333 0.0000 ( 20870 PWs)   bands (ev):

   -18.6635 -18.6396 -18.6381 -18.6259 -18.6118 -18.1911 -15.9192  -9.8491
    -9.6066  -9.0491  -9.0361  -7.9326  -7.2754  -5.5544  -4.2001  -3.8254
    -3.5441  -1.2283  -0.4270   0.0375   0.3095   0.6757   0.9021   1.0872
     1.4688   1.9396   2.1960

     occupation numbers 
     1.0000   1.0000   1.0000   1.0000   1.0000   1.0000   1.0000   1.0000
     1.0000   1.0000   1.0000   1.0000   1.0000   1.0000   1.0000   1.0000
     1.0000   1.0000   1.0000   1.0000   1.0000   1.0000   1.0000   1.0000
     1.0000   1.0000   1.0000

          k = 0.0000-0.5000 0.3333 ( 20870 PWs)   bands (ev):

   -18.6624 -18.6397 -18.6381 -18.6267 -18.6117 -18.2021 -15.8845  -9.9775
    -9.5423  -9.0705  -9.0485  -8.0194  -7.2926  -5.2883  -4.2404  -3.8303
    -3.5562  -0.7746  -0.2765  -0.0093   0.1276   0.5754   1.1345   1.1784
     1.4280   1.4638   2.1401

     occupation numbers 
     1.0000   1.0000   1.0000   1.0000   1.0000   1.0000   1.0000   1.0000
     1.0000   1.0000   1.0000   1.0000   1.0000   1.0000   1.0000   1.0000
     1.0000   1.0000   1.0000   1.0000   1.0000   1.0000   1.0000   1.0000
     1.0000   1.0000   1.0000

          k = 0.3333-0.5000 0.0000 ( 20870 PWs)   bands (ev):

   -18.6635 -18.6396 -18.6381 -18.6259 -18.6118 -18.1938 -15.9102  -9.9033
    -9.5848  -9.0571  -9.0238  -7.9563  -7.2700  -5.4810  -4.2019  -3.8138
    -3.5518  -1.1932  -0.4256   0.1207   0.1919   0.6780   0.9275   1.1448
     1.3429   1.9397   2.1909

     occupation numbers 
     1.0000   1.0000   1.0000   1.0000   1.0000   1.0000   1.0000   1.0000
     1.0000   1.0000   1.0000   1.0000   1.0000   1.0000   1.0000   1.0000
     1.0000   1.0000   1.0000   1.0000   1.0000   1.0000   1.0000   1.0000
     1.0000   1.0000   1.0000

          k =-0.5000 0.0000 0.3333 ( 20870 PWs)   bands (ev):

   -18.6625 -18.6396 -18.6382 -18.6267 -18.6117 -18.1914 -15.9202  -9.8048
    -9.5920  -9.0850  -9.0413  -7.9294  -7.2994  -5.5961  -4.2349  -3.8981
    -3.5566  -0.7985  -0.3672   0.1525   0.2640   0.4626   1.1589   1.2518
     1.2638   1.5246   2.1679

     occupation numbers 
     1.0000   1.0000   1.0000   1.0000   1.0000   1.0000   1.0000   1.0000
     1.0000   1.0000   1.0000   1.0000   1.0000   1.0000   1.0000   1.0000
     1.0000   1.0000   1.0000   1.0000   1.0000   1.0000   1.0000   1.0000
     1.0000   1.0000   1.0000

          k =-0.5000 0.0000 0.5000 ( 20808 PWs)   bands (ev):

   -18.6620 -18.6396 -18.6382 -18.6267 -18.6117 -18.1913 -15.9200  -9.7815
    -9.5918  -9.1089  -9.0401  -7.9293  -7.2995  -5.6007  -4.3656  -3.9052
    -3.5593  -0.7392  -0.2064   0.1086   0.3605   0.8233   0.9543   1.1671
     1.2583   1.6232   2.4865

     occupation numbers 
     1.0000   1.0000   1.0000   1.0000   1.0000   1.0000   1.0000   1.0000
     1.0000   1.0000   1.0000   1.0000   1.0000   1.0000   1.0000   1.0000
     1.0000   1.0000   1.0000   1.0000   1.0000   1.0000   1.0000   1.0000
     1.0000   1.0000   1.0000

          k =-0.5000 0.5000 0.0000 ( 20808 PWs)   bands (ev):

   -18.6634 -18.6396 -18.6381 -18.6256 -18.6118 -18.1910 -15.9187  -9.8434
    -9.6112  -9.0576  -9.0332  -7.9336  -7.2679  -5.5456  -4.3292  -3.8082
    -3.5425  -1.1653  -0.4931   0.1981   0.3053   0.5885   1.0761   1.1063
     1.4303   2.0759   2.6311

     occupation numbers 
     1.0000   1.0000   1.0000   1.0000   1.0000   1.0000   1.0000   1.0000
     1.0000   1.0000   1.0000   1.0000   1.0000   1.0000   1.0000   1.0000
     1.0000   1.0000   1.0000   1.0000   1.0000   1.0000   1.0000   1.0000
     1.0000   1.0000   1.0000

          k = 0.3333-0.1667 0.1667 ( 20835 PWs)   bands (ev):

   -18.6633 -18.6396 -18.6381 -18.6267 -18.6117 -18.1942 -15.9113  -9.9107
    -9.5604  -9.1126  -8.9635  -7.9616  -7.2891  -5.5027  -3.9805  -3.8553
    -3.5579  -0.9317  -0.5436  -0.2477   0.1543   0.6170   0.8922   1.2594
     1.4058   1.4510   1.7546

     occupation numbers 
     1.0000   1.0000   1.0000   1.0000   1.0000   1.0000   1.0000   1.0000
     1.0000   1.0000   1.0000   1.0000   1.0000   1.0000   1.0000   1.0000
     1.0000   1.0000   1.0000   1.0000   1.0000   1.0000   1.0000   1.0000
     1.0000   1.0000   1.0000

          k =-0.1667 0.3333 0.1667 ( 20835 PWs)   bands (ev):

   -18.6633 -18.6396 -18.6381 -18.6267 -18.6117 -18.1996 -15.8933  -9.9877
    -9.5511  -9.1110  -8.9553  -8.0012  -7.2844  -5.3547  -3.9821  -3.8313
    -3.5677  -0.8577  -0.5230  -0.2569   0.0759   0.6643   0.8690   1.2729
     1.3311   1.4063   1.7595

     occupation numbers 
     1.0000   1.0000   1.0000   1.0000   1.0000   1.0000   1.0000   1.0000
     1.0000   1.0000   1.0000   1.0000   1.0000   1.0000   1.0000   1.0000
     1.0000   1.0000   1.0000   1.0000   1.0000   1.0000   1.0000   1.0000
     1.0000   1.0000   1.0000

          k =-0.5000-0.1667 0.1667 ( 20848 PWs)   bands (ev):

   -18.6633 -18.6396 -18.6381 -18.6264 -18.6118 -18.1913 -15.9200  -9.8437
    -9.5964  -9.0462  -9.0413  -7.9311  -7.2915  -5.5776  -4.0945  -3.8648
    -3.5512  -0.9460  -0.5129  -0.2123   0.2445   0.6425   0.9057   1.2494
     1.4964   1.6179   1.9994

     occupation numbers 
     1.0000   1.0000   1.0000   1.0000   1.0000   1.0000   1.0000   1.0000
     1.0000   1.0000   1.0000   1.0000   1.0000   1.0000   1.0000   1.0000
     1.0000   1.0000   1.0000   1.0000   1.0000   1.0000   1.0000   1.0000
     1.0000   1.0000   1.0000

          k =-0.1667-0.5000 0.1667 ( 20848 PWs)   bands (ev):

   -18.6632 -18.6396 -18.6381 -18.6264 -18.6118 -18.1994 -15.8931  -9.9756
    -9.5656  -9.0432  -9.0291  -7.9953  -7.2831  -5.3545  -4.0992  -3.8251
    -3.5659  -0.8274  -0.4572  -0.2836   0.1299   0.7015   0.9162   1.2521
     1.3274   1.6348   1.9879

     occupation numbers 
     1.0000   1.0000   1.0000   1.0000   1.0000   1.0000   1.0000   1.0000
     1.0000   1.0000   1.0000   1.0000   1.0000   1.0000   1.0000   1.0000
     1.0000   1.0000   1.0000   1.0000   1.0000   1.0000   1.0000   1.0000
     1.0000   1.0000   1.0000

          k = 0.3333 0.1667-0.3333 ( 20855 PWs)   bands (ev):

   -18.6625 -18.6396 -18.6381 -18.6267 -18.6117 -18.1941 -15.9110  -9.8721
    -9.5533  -9.1527  -8.9652  -7.9653  -7.2900  -5.5109  -4.2868  -3.8737
    -3.5577  -0.4899  -0.3173   0.0461   0.1623   0.3978   0.9421   1.2555
     1.4643   1.5116   1.8088

     occupation numbers 
     1.0000   1.0000   1.0000   1.0000   1.0000   1.0000   1.0000   1.0000
     1.0000   1.0000   1.0000   1.0000   1.0000   1.0000   1.0000   1.0000
     1.0000   1.0000   1.0000   1.0000   1.0000   1.0000   1.0000   1.0000
     1.0000   1.0000   1.0000

          k = 0.3333-0.3333 0.1667 ( 20855 PWs)   bands (ev):

   -18.6631 -18.6396 -18.6381 -18.6261 -18.6118 -18.1939 -15.9105  -9.8985
    -9.5737  -9.0877  -8.9958  -7.9605  -7.2771  -5.4918  -4.2688  -3.8296
    -3.5563  -0.8376  -0.3368  -0.0241   0.1863   0.7032   0.7577   1.2899
     1.4108   1.6772   1.8964

     occupation numbers 
     1.0000   1.0000   1.0000   1.0000   1.0000   1.0000   1.0000   1.0000
     1.0000   1.0000   1.0000   1.0000   1.0000   1.0000   1.0000   1.0000
     1.0000   1.0000   1.0000   1.0000   1.0000   1.0000   1.0000   1.0000
     1.0000   1.0000   1.0000

          k = 0.3333 0.1667 0.5000 ( 20856 PWs)   bands (ev):

   -18.6620 -18.6396 -18.6382 -18.6267 -18.6117 -18.1941 -15.9109  -9.8512
    -9.5489  -9.1758  -8.9658  -7.9671  -7.2905  -5.5147  -4.4140  -3.8794
    -3.5578  -0.3983  -0.2208   0.1132   0.2347   0.4117   1.0811   1.0883
     1.5273   1.6317   2.0104

     occupation numbers 
     1.0000   1.0000   1.0000   1.0000   1.0000   1.0000   1.0000   1.0000
     1.0000   1.0000   1.0000   1.0000   1.0000   1.0000   1.0000   1.0000
     1.0000   1.0000   1.0000   1.0000   1.0000   1.0000   1.0000   1.0000
     1.0000   1.0000   1.0000

          k =-0.5000-0.3333 0.1667 ( 20856 PWs)   bands (ev):

   -18.6631 -18.6396 -18.6381 -18.6259 -18.6118 -18.1911 -15.9191  -9.8376
    -9.6045  -9.0532  -9.0364  -7.9343  -7.2770  -5.5610  -4.3910  -3.8267
    -3.5505  -0.8329  -0.3529   0.0689   0.2154   0.6892   0.8328   1.2403
     1.4769   1.9316   2.2118

     occupation numbers 
     1.0000   1.0000   1.0000   1.0000   1.0000   1.0000   1.0000   1.0000
     1.0000   1.0000   1.0000   1.0000   1.0000   1.0000   1.0000   1.0000
     1.0000   1.0000   1.0000   1.0000   1.0000   1.0000   1.0000   1.0000
     1.0000   1.0000   1.0000

          k =-0.1667-0.5000 0.3333 ( 20856 PWs)   bands (ev):

   -18.6623 -18.6397 -18.6381 -18.6264 -18.6118 -18.1993 -15.8929  -9.9456
    -9.5468  -9.0630  -9.0499  -8.0069  -7.2834  -5.3574  -4.4111  -3.8242
    -3.5584  -0.4141  -0.2935   0.0216   0.1274   0.5112   0.9592   1.2997
     1.4426   1.6628   2.1628

     occupation numbers 
     1.0000   1.0000   1.0000   1.0000   1.0000   1.0000   1.0000   1.0000
     1.0000   1.0000   1.0000   1.0000   1.0000   1.0000   1.0000   1.0000
     1.0000   1.0000   1.0000   1.0000   1.0000   1.0000   1.0000   1.0000
     1.0000   1.0000   1.0000

          k = 0.3333-0.5000 0.1667 ( 20856 PWs)   bands (ev):

   -18.6631 -18.6396 -18.6381 -18.6259 -18.6118 -18.1938 -15.9101  -9.8921
    -9.5811  -9.0561  -9.0304  -7.9602  -7.2711  -5.4862  -4.3927  -3.8133
    -3.5554  -0.7713  -0.3953   0.1120   0.1653   0.6948   0.8086   1.3059
     1.3846   1.9369   2.2051

     occupation numbers 
     1.0000   1.0000   1.0000   1.0000   1.0000   1.0000   1.0000   1.0000
     1.0000   1.0000   1.0000   1.0000   1.0000   1.0000   1.0000   1.0000
     1.0000   1.0000   1.0000   1.0000   1.0000   1.0000   1.0000   1.0000
     1.0000   1.0000   1.0000

          k =-0.5000 0.1667 0.3333 ( 20856 PWs)   bands (ev):

   -18.6624 -18.6396 -18.6382 -18.6264 -18.6118 -18.1913 -15.9197  -9.8077
    -9.5948  -9.0778  -9.0398  -7.9322  -7.2929  -5.5887  -4.4073  -3.8754
    -3.5588  -0.4658  -0.3245   0.1274   0.2376   0.4512   0.9169   1.3302
     1.4743   1.6145   2.1843

     occupation numbers 
     1.0000   1.0000   1.0000   1.0000   1.0000   1.0000   1.0000   1.0000
     1.0000   1.0000   1.0000   1.0000   1.0000   1.0000   1.0000   1.0000
     1.0000   1.0000   1.0000   1.0000   1.0000   1.0000   1.0000   1.0000
     1.0000   1.0000   1.0000

          k =-0.5000 0.1667 0.5000 ( 20824 PWs)   bands (ev):

   -18.6619 -18.6396 -18.6382 -18.6264 -18.6118 -18.1912 -15.9196  -9.7881
    -9.5940  -9.0953  -9.0391  -7.9327  -7.2935  -5.5938  -4.5360  -3.8806
    -3.5627  -0.3626  -0.1813   0.0795   0.2305   0.8260   0.9250   1.1256
     1.5621   1.6305   2.5149

     occupation numbers 
     1.0000   1.0000   1.0000   1.0000   1.0000   1.0000   1.0000   1.0000
     1.0000   1.0000   1.0000   1.0000   1.0000   1.0000   1.0000   1.0000
     1.0000   1.0000   1.0000   1.0000   1.0000   1.0000   1.0000   1.0000
     1.0000   1.0000   1.0000

          k =-0.5000 0.5000 0.1667 ( 20824 PWs)   bands (ev):

   -18.6630 -18.6396 -18.6381 -18.6256 -18.6118 -18.1909 -15.9186  -9.8347
    -9.6085  -9.0564  -9.0340  -7.9359  -7.2699  -5.5525  -4.5170  -3.8075
    -3.5501  -0.7416  -0.4409   0.1746   0.2009   0.6108   1.1091   1.2361
     1.4451   2.0696   2.6576

     occupation numbers 
     1.0000   1.0000   1.0000   1.0000   1.0000   1.0000   1.0000   1.0000
     1.0000   1.0000   1.0000   1.0000   1.0000   1.0000   1.0000   1.0000
     1.0000   1.0000   1.0000   1.0000   1.0000   1.0000   1.0000   1.0000
     1.0000   1.0000   1.0000

          k =-0.5000-0.3333 0.3333 ( 20884 PWs)   bands (ev):

   -18.6622 -18.6396 -18.6382 -18.6259 -18.6118 -18.1910 -15.9188  -9.8137
    -9.6004  -9.0623  -9.0369  -7.9378  -7.2801  -5.5738  -4.6953  -3.8294
    -3.5631  -0.3330   0.0586   0.0772   0.1822   0.7240   0.7372   1.4628
     1.5074   1.9110   2.3383

     occupation numbers 
     1.0000   1.0000   1.0000   1.0000   1.0000   1.0000   1.0000   1.0000
     1.0000   1.0000   1.0000   1.0000   1.0000   1.0000   1.0000   1.0000
     1.0000   1.0000   1.0000   1.0000   1.0000   1.0000   1.0000   1.0000
     1.0000   1.0000   1.0000

          k =-0.3333-0.5000 0.3333 ( 20884 PWs)   bands (ev):

   -18.6622 -18.6397 -18.6381 -18.6259 -18.6118 -18.1937 -15.9098  -9.8689
    -9.5735  -9.0543  -9.0440  -7.9680  -7.2735  -5.4962  -4.6965  -3.8121
    -3.5629  -0.3119   0.0644   0.0901   0.1073   0.7352   0.7452   1.4777
     1.4803   1.9308   2.3285

     occupation numbers 
     1.0000   1.0000   1.0000   1.0000   1.0000   1.0000   1.0000   1.0000
     1.0000   1.0000   1.0000   1.0000   1.0000   1.0000   1.0000   1.0000
     1.0000   1.0000   1.0000   1.0000   1.0000   1.0000   1.0000   1.0000
     1.0000   1.0000   1.0000

          k =-0.5000 0.3333 0.5000 ( 20844 PWs)   bands (ev):

   -18.6617 -18.6397 -18.6382 -18.6259 -18.6118 -18.1910 -15.9186  -9.8013
    -9.5983  -9.0672  -9.0372  -7.9395  -7.2816  -5.5799  -4.8234  -3.8307
    -3.5693  -0.2054   0.0218   0.0561   0.4990   0.7425   0.8656   1.4012
     1.6436   1.8930   2.6825

     occupation numbers 
     1.0000   1.0000   1.0000   1.0000   1.0000   1.0000   1.0000   1.0000
     1.0000   1.0000   1.0000   1.0000   1.0000   1.0000   1.0000   1.0000
     1.0000   1.0000   1.0000   1.0000   1.0000   1.0000   1.0000   1.0000
     1.0000   1.0000   1.0000

          k =-0.5000 0.5000 0.3333 ( 20844 PWs)   bands (ev):

   -18.6621 -18.6397 -18.6381 -18.6256 -18.6118 -18.1909 -15.9183  -9.8169
    -9.6032  -9.0539  -9.0354  -7.9405  -7.2738  -5.5661  -4.8203  -3.8061
    -3.5652  -0.3143   0.0522   0.0831   0.1851   0.6564   1.1152   1.4961
     1.5132   2.0566   2.7863

     occupation numbers 
     1.0000   1.0000   1.0000   1.0000   1.0000   1.0000   1.0000   1.0000
     1.0000   1.0000   1.0000   1.0000   1.0000   1.0000   1.0000   1.0000
     1.0000   1.0000   1.0000   1.0000   1.0000   1.0000   1.0000   1.0000
     1.0000   1.0000   1.0000

     highest occupied level (ev):     3.1968

!    total energy              =   -1346.29728821 Ry
     Harris-Foulkes estimate   =   -1346.29728852 Ry
     estimated scf accuracy    <       0.00000070 Ry

     The total energy is the sum of the following terms:
     one-electron contribution =    -149.69038750 Ry
     hartree contribution      =      97.16248268 Ry
     xc contribution           =    -189.91622992 Ry
     ewald contribution        =    -152.94046865 Ry
     one-center paw contrib.   =    -950.91268481 Ry
      -> PAW hartree energy AE =      18.90764617 Ry
      -> PAW hartree energy PS =     -19.02732323 Ry
      -> PAW xc energy AE      =    -710.04774403 Ry
      -> PAW xc energy PS      =      80.16889216 Ry
      -> total E_H with PAW    =      97.04280561 Ry
      -> total E_XC with PAW   =    -819.79508179 Ry
 
     Band energy sum           =     -28.02051432 Ry

     convergence has been achieved in   7 iterations

     evp_work_count     :  7688.288625
     num_loc_op_applied :   9860

     Forces acting on atoms (cartesian axes, Ry/au):

     atom    1 type  1   force =     0.00000000   -0.00142722    0.00000000
     atom    2 type  2   force =     0.00000000    0.00072117    0.00000000
     atom    3 type  2   force =     0.00000000    0.00029409    0.00000000
     atom    4 type  2   force =     0.00000000   -0.00993895    0.00000000
     atom    5 type  3   force =     0.00000000   -0.00851379    0.00000000
     atom    6 type  3   force =     0.01258525    0.00021200    0.00000000
     atom    7 type  3   force =     0.00258460    0.00798047    0.00000000
     atom    8 type  3   force =    -0.00258460    0.00798047    0.00000000
     atom    9 type  3   force =    -0.01258525    0.00021200    0.00000000
     atom   10 type  4   force =     0.00000000    0.03094659    0.00000000
     atom   11 type  5   force =     0.02653826   -0.01423342    0.00000000
     atom   12 type  5   force =    -0.02653826   -0.01423342    0.00000000
     The non-local contrib.  to forces
     atom    1 type  1   force =     0.00000000   -0.00000463    0.00000000
     atom    2 type  2   force =     0.00000000    0.00005143    0.00000000
     atom    3 type  2   force =     0.00000000    0.00098714    0.00000000
     atom    4 type  2   force =     0.00000000   -0.00000818    0.00000000
     atom    5 type  3   force =     0.00000000   -0.07848211    0.00000000
     atom    6 type  3   force =    -0.07962576   -0.05827731   -0.00000000
     atom    7 type  3   force =    -0.01310685    0.09224721    0.00000000
     atom    8 type  3   force =     0.01310685    0.09224721   -0.00000000
     atom    9 type  3   force =     0.07962576   -0.05827731    0.00000000
     atom   10 type  4   force =     0.00000000   -0.26795117    0.00000000
     atom   11 type  5   force =    -0.20955982    0.13152827   -0.00000000
     atom   12 type  5   force =     0.20955982    0.13152827    0.00000000
     The ionic contribution  to forces
     atom    1 type  1   force =    -0.00000000   -0.10562139   -0.00000000
[...]
 | |
 | |- qe|sum_band                                                         472       65.19 s       4.06      11.55     138.15 ms     135.31 ms     149.01 ms
 | | |- sirius::Density::generate                                         472       59.20 s       3.69      90.82     125.54 ms     122.71 ms     131.53 ms
 | | | |- sirius::Density::generate_valence                               472       59.20 s       3.69     100.00     125.54 ms     122.71 ms     131.53 ms
 | | | | |- sddk::matrix_storage::remap_forward                          7552      19.75 ms       0.00       0.03       2.32 us       1.83 us      14.63 us
 | | | | | |- sddk::matrix_storage::set_num_extra                        7552      17.25 ms       0.00      87.34       2.12 us       1.68 us      11.99 us
 | | | | |
 | | | | |- sirius::Density::add_k_point_contribution_dm                 7552        3.82 s       0.24       6.46     502.65 us     475.66 us     734.62 us
 | | | | | |- sirius::Beta_projectors_base::prepare                      7552      20.84 ms       0.00       0.54       2.55 us       1.60 us      20.02 us
 | | | | | |- sirius::Beta_projectors_base::generate                     7552        1.31 s       0.08      34.36     174.16 us     144.85 us     236.89 us
 | | | | | |- sirius::Beta_projectors_base::inner                        7552        2.21 s       0.14      57.73     290.97 us     280.70 us     483.07 us
 | | | | | |- sirius::Beta_projectors_base::dismiss                      7552       6.46 ms       0.00       0.17     397.00 ns     238.00 ns      19.46 us
 | | | | |
 | | | | |- sirius::Density::add_k_point_contribution_rg                 7552       41.61 s       2.59      70.27       5.48 ms       5.36 ms       7.14 ms
 | | | | |- sirius::Smooth_periodic_function::fft_transform               472     310.46 ms       0.02       0.52     661.43 us     616.72 us     695.84 us
 | | | | |- sirius::Density::augment                                      472        4.27 s       0.27       7.21       9.05 ms       8.84 ms       9.11 ms
 | | | | | |- sirius::Density::generate_rho_aug                           472        4.26 s       0.27      99.85       9.04 ms       8.83 ms       9.10 ms
 | | |
 | | |- sirius_api::sirius_get_pw_coeffs                                  472        1.70 s       0.11       2.61       3.59 ms       3.40 ms       7.84 ms
 | | | |- sirius::Smooth_periodic_function::gather_f_pw                   472     226.44 ms       0.01      13.29     465.62 us     416.25 us       4.74 ms
 | | |
 | | |- qe|sym_rho                                                        472        3.26 s       0.20       5.00       6.89 ms       6.62 ms       7.55 ms
 | |
 | |- qe|mix                                                              472       10.50 s       0.65       1.86      20.99 ms       3.11 ms      46.18 ms
 | |- sirius_api::sirius_set_pw_coeffs                                    471     966.68 ms       0.06       0.17       1.94 ms     968.04 us       5.64 ms
 | | |- sirius::Smooth_periodic_function::fft_transform                   471     737.54 ms       0.05      76.30       1.44 ms     534.49 us       5.19 ms
 | |
 | |- qe|newd                                                             471        4.29 s       0.27       0.76       9.10 ms       8.91 ms      11.02 ms
 | | |- sirius::Potential::generate_D_operator_matrix                     471        4.28 s       0.27      99.73       9.08 ms       8.88 ms      11.00 ms
 |
 |- sirius_api::sirius_get_wave_functions                                 816        6.35 s       0.40       0.40       7.65 ms       7.31 ms      11.23 ms
 | |- sddk::matrix_storage::matrix_storage                                816     919.41 us       0.00       0.01     887.00 ns     523.00 ns      21.76 us
 |
 |- qe|ions                                                                51      421.99 s      26.29      26.29        8.24 s        7.76 s        9.31 s
 | |- sirius_api::sirius_set_pw_coeffs                                     51     124.64 ms       0.01       0.03       2.51 ms       1.08 ms       2.77 ms
 | | |- sirius::Smooth_periodic_function::fft_transform                    51      95.24 ms       0.01      76.41       1.91 ms     534.45 us       2.11 ms
 | |
 | |- qe|forces                                                            51      142.54 s       8.88      33.78        2.80 s        2.74 s        2.81 s
 | | |- qe|force|us                                                        51       21.33 s       1.33      14.96     419.32 ms     405.71 ms     424.86 ms
 | | | |- sirius::Force::calc_forces_us                                    51        9.11 s       0.57      42.72     179.61 ms     172.52 ms     182.97 ms
 | | | | |- sirius::Smooth_periodic_function::fft_transform                51      22.32 ms       0.00       0.25     438.20 us     407.23 us     483.56 us
 | | | |
 | | | |- sirius::Force::calc_forces_nonloc                                51       12.22 s       0.76      57.28     240.97 ms     229.89 ms     244.87 ms
 | | | | |- sirius::Non_local_functor::add_k_point                        816        5.37 s       0.33      43.94       6.56 ms       6.31 ms       7.73 ms
 | | | | | |- sirius::Beta_projectors_base::prepare                      1632        3.70 s       0.23      68.97       2.15 ms       5.37 us       5.49 ms
 | | | | | |- sirius::Beta_projectors_base::generate                     3264     477.13 ms       0.03       8.89     139.59 us     106.50 us     208.28 us
 | | | | | |- sirius::Beta_projectors_base::inner                        3264     958.90 ms       0.06      17.86     292.91 us     273.91 us     324.25 us
 | | | | | |- sirius::Beta_projectors_base::dismiss                      1632       1.93 ms       0.00       0.04       1.08 us     650.00 ns       8.66 us
 | | |
 | | |- qe|force|local                                                     51        1.29 s       0.08       0.90      25.26 ms      23.19 ms      27.37 ms
 | | |- qe|force|cc                                                        51       63.63 s       3.96      44.64        1.25 s        1.23 s        1.26 s
 | | |- qe|force|ewald                                                     51        1.28 s       0.08       0.90      24.94 ms      23.17 ms      27.01 ms
 | | |- qe|force|scf                                                       51       54.99 s       3.43      38.58        1.08 s        1.05 s        1.09 s
 | |
 | |- qe|stress                                                            51      258.46 s      16.10      61.25        5.07 s        5.03 s        5.15 s
 | | |- sirius::Stress|kin                                                 51        1.21 s       0.08       0.47      19.07 ms       5.71 ms     112.43 ms
 | | |- sirius::Stress|nonloc                                              51       34.57 s       2.15      13.37     677.25 ms     668.28 ms     687.05 ms
 | | | |- sirius::Beta_projectors_strain_deriv::generate_pw_coefs_t       816       13.58 s       0.85      39.29      16.63 ms      16.17 ms      17.04 ms
 | | | |- sirius::Non_local_functor::add_k_point                          816       15.04 s       0.94      43.50      18.42 ms      17.68 ms      23.82 ms
 | | | | |- sirius::Beta_projectors_base::prepare                        1632       10.99 s       0.68      73.12       6.45 ms       5.97 us      18.96 ms
 | | | | |- sirius::Beta_projectors_base::generate                       8160        1.01 s       0.06       6.71     112.26 us     104.40 us     204.18 us
 | | | | |- sirius::Beta_projectors_base::inner                          8160        2.43 s       0.15      16.18     290.39 us     275.75 us     348.26 us
 | | | | |- sirius::Beta_projectors_base::dismiss                        1632       2.07 ms       0.00       0.01       1.17 us     763.00 ns      11.02 us
 | | |
 | | |- sirius::Stress|us                                                  51       12.81 s       0.80       4.95     250.30 ms     241.85 ms     266.59 ms
 | | | |- sirius::Smooth_periodic_function::fft_transform                  51      95.88 ms       0.01       0.75       1.84 ms       1.79 ms       2.03 ms
 | | | |- sirius::Augmentation_operator_gvec_deriv                         51        3.33 s       0.21      26.04      65.32 ms      64.77 ms      72.68 ms
 | | | |- sirius::Augmentation_operator_gvec_deriv::prepare               255     419.81 ms       0.03       3.28       1.42 ms     250.80 us       3.72 ms
 | | | |- sirius::Stress|us|phase_fac                                     255        2.02 s       0.13      15.75       7.92 ms       7.60 ms       8.10 ms
 | | | |- sirius::Augmentation_operator_gvec_deriv::generate_pw_coeffs    765      22.12 ms       0.00       0.17      28.66 us      21.80 us      46.79 us
 | | | |- sirius::Stress|us|prepare                                      2295     104.10 ms       0.01       0.81      36.54 us      22.20 us     104.25 us
 | | | |- sirius::Stress|us|gemm                                         2295        6.53 s       0.41      51.02     818.93 us     488.98 us      26.29 ms
 | |
 | |- sirius::DFT_ground_state::update                                     50       14.05 s       0.88       3.33     280.43 ms     276.52 ms     286.43 ms
 | | |- sirius::Simulation_context::update                                 50        7.64 s       0.48      54.38     152.53 ms     151.13 ms     159.03 ms
 | | | |- sirius::Unit_cell::update                                        50      11.03 ms       0.00       0.14     220.51 us     203.07 us     245.22 us
 | | | | |- sirius::Unit_cell::find_nearest_neighbours                     50       4.44 ms       0.00      40.22      88.03 us      76.61 us     103.75 us
 | | | | |- sirius::Unit_cell::get_symmetry                                50       3.46 ms       0.00      31.33      68.52 us      63.97 us      75.82 us
 | | | | | |- sirius::Unit_cell_symmetry                                   50     627.37 us       0.00      18.15      12.45 us      11.78 us      16.06 us
 | | | | | | |- sirius::Unit_cell_symmetry|spg                             50       4.90 us       0.00       0.78      27.50 ns      25.00 ns       3.52 us
 | | | | | | |- sirius::Unit_cell_symmetry|equiv                           50     367.89 us       0.00      58.64       7.30 us       7.02 us       8.02 us
 | | | | | | |- sirius::Unit_cell_symmetry|mag                             50      60.32 us       0.00       9.62       1.16 us       1.08 us       1.66 us
 | | | |
 | | | |- sddk::Gvec::find_gvec_shells                                    100        1.71 s       0.11      22.41      17.03 ms      16.63 ms      18.57 ms
 | | | |- sirius::Simulation_context::init_atoms_to_grid_idx               50       6.06 ms       0.00       0.08     120.51 us     114.88 us     133.54 us
 | | | |- sirius::Augmentation_operator::generate_pw_coeffs               250        4.87 s       0.30      63.78       3.64 ms     347.84 us      90.10 ms
 | | |
 | | |- sirius::K_point::update                                           800        6.04 s       0.38      42.97       7.46 ms       7.20 ms      10.64 ms
 | | | |- sirius::Beta_projectors                                         800        2.74 s       0.17      45.36       3.40 ms       3.15 ms       4.40 ms
 | | | | |- sirius::Beta_projectors::generate_pw_coefs_t                  800        1.38 s       0.09      50.33       1.72 ms       1.59 ms       2.67 ms
 | | |
 | | |- sirius::Potential::update                                          50       2.87 ms       0.00       0.02      56.44 us      53.88 us      77.23 us
 | | |- sirius::Density::update                                            50       2.70 ms       0.00       0.02      53.40 us      50.63 us      76.13 us
 |
 |- qe|update                                                              49      573.64 s      35.73      35.73       11.70 s       11.62 s       11.96 s
 | |- qe|init_vloc                                                         49      495.30 s      30.85      86.34       10.11 s       10.04 s       10.18 s
 | |- qe|setlocal                                                          49     273.92 ms       0.02       0.05       5.58 ms       5.41 ms       5.81 ms
 | |- qe|set_rhoc                                                          49       57.17 s       3.56       9.97        1.17 s        1.16 s        1.17 s
 | |- qe|potinit                                                           49        4.41 s       0.27       0.77      78.86 ms      77.19 ms     377.59 ms
 | | |- qe|atomic_rho_g                                                    49     106.21 ms       0.01       2.41       2.16 ms       2.13 ms       2.27 ms
 | | | |- sirius_api::sirius_get_pw_coeffs_real                           245      78.74 ms       0.00      74.14     311.21 us     306.00 us     391.02 us
 | | |
 | | |- qe|paw_becsum                                                      49      50.62 ms       0.00       1.15       1.43 ms      93.07 us       1.63 ms
 | | |- sirius_api::sirius_set_pw_coeffs                                   49     152.17 ms       0.01       3.45       2.70 ms       1.03 ms       8.33 ms
 | | | |- sirius::Smooth_periodic_function::fft_transform                  49     129.06 ms       0.01      84.81       2.21 ms     584.55 us       7.88 ms
 | | |
 | | |- qe|paw_potential                                                   49        1.09 s       0.07      24.75      22.28 ms      21.88 ms      22.68 ms
 | | |- qe|set_vrs                                                         49      28.05 ms       0.00       0.64     572.08 us     550.44 us     613.03 us
 | |
 | |- qe|newd                                                              49     444.46 ms       0.03       0.08       9.07 ms       9.01 ms       9.21 ms
 | | |- sirius::Potential::generate_D_operator_matrix                      49     443.28 ms       0.03      99.74       9.05 ms       8.99 ms       9.19 ms
 | |
 | |- sirius::Hamiltonian0                                                 49      84.81 ms       0.01       0.01       1.73 ms       1.70 ms       1.81 ms
 | | |- sirius::Local_operator                                             49      77.40 ms       0.00      91.26       1.58 ms       1.55 ms       1.66 ms
 | | | |- sirius::Smooth_periodic_function                                 49      16.46 ms       0.00      21.27     335.38 us     323.09 us     350.62 us
 | | | |- sirius::Smooth_periodic_function::fft_transform                  49      43.17 ms       0.00      55.78     877.82 us     860.25 us     952.22 us
 | | |
 | | |- sirius::Non_local_operator                                         98       4.86 ms       0.00       5.73      50.29 us      12.04 us      88.57 us
 | | |- sirius::D_operator::initialize                                     49       1.21 ms       0.00       1.43      24.51 us      21.40 us      35.66 us
 | | |- sirius::Q_operator::initialize                                     49       1.06 ms       0.00       1.25      21.21 us      19.34 us      29.04 us
 | |
 | |- sirius::Band::initialize_subspace                                    49       15.65 s       0.97       2.73     317.01 ms     311.70 ms     334.86 ms
 | | |- sirius::Hamiltonian_k                                             784      86.60 ms       0.01       0.55     110.35 us      59.77 us     143.67 us
 | | | |- sirius::Local_operator::prepare_k                               784      84.51 ms       0.01      97.59     107.83 us      56.50 us     140.71 us
 | | | |- sirius::Beta_projectors_base::prepare                           784       1.54 ms       0.00       1.78       1.84 us       1.35 us      10.62 us
 | | |
 | | |- sirius::Band::initialize_subspace|kp                              784       15.56 s       0.97      99.43      19.59 ms      19.26 ms      24.84 ms
 | | | |- sddk::matrix_storage::matrix_storage                           3136       2.51 ms       0.00       0.02     641.00 ns     207.00 ns      13.85 us
 | | | |- sirius::K_point::generate_atomic_wave_functions                 784        2.61 s       0.16      16.77       3.28 ms       3.22 ms       4.19 ms
 | | | |- sirius::Band::initialize_subspace|kp|wf                         784     247.01 ms       0.02       1.59     314.67 us     302.48 us     406.71 us
 | | | |- sirius::Hamiltonian_k::apply_h_s                                784        8.68 s       0.54      55.80      10.93 ms      10.78 ms      11.90 ms
 | | | | |- sirius::Local_operator::apply_h                               784        7.56 s       0.47      87.00       9.51 ms       9.37 ms      10.39 ms
 | | | | | |- sddk::matrix_storage::remap_forward                         784       1.16 ms       0.00       0.02       1.33 us       1.06 us       8.68 us
 | | | | | | |- sddk::matrix_storage::set_num_extra                       784     919.88 us       0.00      79.55       1.08 us     846.00 ns       8.45 us
 | | | | | |
 | | | | | |- sddk::matrix_storage::set_num_extra                         784     320.31 us       0.00       0.00     345.00 ns     260.00 ns      14.98 us
 | | | | | |- sddk::matrix_storage::remap_backward                        784     409.96 us       0.00       0.01     423.00 ns     186.00 ns      10.87 us
 | | | | |
 | | | | |- sirius::Beta_projectors_base::generate                        784     121.86 ms       0.01       1.40     155.21 us     143.19 us     166.30 us
 | | | | |- sirius::Beta_projectors_base::inner                           784     277.17 ms       0.02       3.19     349.64 us     333.59 us     399.12 us
 | | | | |- sirius::Non_local_operator::apply                            1568     716.58 ms       0.04       8.25     447.38 us     386.73 us     989.64 us
 | | | |
 | | | |- sirius::Band::set_subspace_mtrx                                1568     465.00 ms       0.03       2.99     292.83 us     281.44 us     340.01 us
 | | | | |- sddk::inner                                                  1568     454.94 ms       0.03      97.84     286.54 us     275.51 us     327.04 us
 | | | | | |- sddk::inner|local                                          1568      21.41 ms       0.00       4.71      13.09 us       9.43 us      28.63 us
 | | | |
 | | | |- Eigensolver_cuda|zhegvdx                                        784        1.52 s       0.09       9.74       1.82 ms       1.76 ms       2.35 ms
 | | | |- sddk::transform                                                 784     106.09 ms       0.01       0.68     134.29 us     124.09 us     163.35 us
 | | | | |- sddk::transform|init                                          784       5.66 ms       0.00       5.33       7.06 us       5.96 us      27.96 us
 | | | | |- sddk::transform|local                                         784       7.40 ms       0.00       6.98       9.20 us       8.12 us      29.54 us
 | | |
 | | |- sirius::Beta_projectors_base::dismiss                             784     341.43 us       0.00       0.00     402.00 ns     295.00 ns       5.81 us
 |
 |- qe|punch                                                                1        1.02 s       0.06       0.06        1.02 s        1.02 s        1.02 s
 |- sirius::finalize                                                        1     128.47 ms       0.01       0.01     128.47 ms     128.47 ms     128.47 ms

===========================================================================================================================================================
Note: The following floating-point exceptions are signalling: IEEE_UNDERFLOW_FLAG IEEE_DENORMAL
Note: The following floating-point exceptions are signalling: IEEE_UNDERFLOW_FLAG IEEE_DENORMAL
Note: The following floating-point exceptions are signalling: IEEE_UNDERFLOW_FLAG IEEE_DENORMAL
Note: The following floating-point exceptions are signalling: IEEE_UNDERFLOW_FLAG IEEE_DENORMAL
