  MPI-parallelism will be employed.
------------------------------------------------------------
          Invoking FHI-aims ...
          Version 151211
          Git rev. (modified): d01ffe6 [mbddev] implement print out of MBD bands
          Compiled on 2015/12/11 at 14:59:51 on host theobook27.

          When using FHI-aims, please cite the following reference:

          Volker Blum, Ralf Gehrke, Felix Hanke, Paula Havu,
          Ville Havu, Xinguo Ren, Karsten Reuter, and Matthias Scheffler,
          'Ab Initio Molecular Simulations with Numeric Atom-Centered Orbitals: FHI-aims',
          Computer Physics Communications 180, 2175-2196 (2009)

          For any questions about FHI-aims, please visit the aimsclub website
          with its forums and wiki. Contributions to both the forums and the
          wiki are warmly encouraged - they are for you, and everyone is welcome there.

------------------------------------------------------------

  Date     :  20160131, Time     :  145427.186
  Time zero on CPU 1             :   0.300000000000000E-01  s.
  Internal wall clock time zero  :           223484067.186  s.

  Using        2 parallel tasks.
  Task        0 on host theobook27 reporting.
  Task        1 on host theobook27 reporting.

  Performing system and environment tests:
  | Environment variable OMP_NUM_THREADS correctly set to 1.
  | Stacksize not measured: no C compiler
  | Checking for scalapack...
  | Testing pdtran()...
  | All pdtran() tests passed.

  Obtaining array dimensions for all initial allocations:
  
  -----------------------------------------------------------------------
  Parsing control.in (first pass over file, find array dimensions only).
  The contents of control.in will be repeated verbatim below
  unless switched off by setting 'verbatim_writeout .false.' .
  in the first line of control.in .
  -----------------------------------------------------------------------
  
    xc                 pw-lda
    charge             0.
    spin               none
    relativistic       none
    occupation_type    gaussian 0.01
    sc_accuracy_rho    1E-5
    sc_accuracy_eev    1E-3
    sc_accuracy_etot   1E-6
    sc_accuracy_forces 1E-3
    relax_geometry     bfgs 1E-2
    relax_unit_cell    full
    k_grid             8 8 8
  ################################################################################
  #
  #  FHI-aims code project
  #  VB, Fritz-Haber Institut, 2009
  #
  #  Suggested "light" defaults for Si atom (to be pasted into control.in file)
  #  Be sure to double-check any results obtained with these settings for post-processing,
  #  e.g., with the "tight" defaults and larger basis sets.
  #
  ################################################################################
    species        Si
  #     global species definitions
      nucleus             14
      mass                28.0855
  #
      l_hartree           4
  #
      cut_pot             3.5          1.5  1.0
      basis_dep_cutoff    1e-4
  #
      radial_base         42 5.0
      radial_multiplier   1
      angular_grids       specified
        division   0.5866   50
        division   0.9616  110
        division   1.2249  194
        division   1.3795  302
  #      division   1.4810  434
  #      division   1.5529  590
  #      division   1.6284  770
  #      division   1.7077  974
  #      division   2.4068 1202
  #      outer_grid   974
        outer_grid 302
  ################################################################################
  #
  #  Definition of "minimal" basis
  #
  ################################################################################
  #     valence basis states
      valence      3  s   2.
      valence      3  p   2.
  #     ion occupancy
      ion_occ      3  s   1.
      ion_occ      3  p   1.
  ################################################################################
  #
  #  Suggested additional basis functions. For production calculations,
  #  uncomment them one after another (the most important basis functions are
  #  listed first).
  #
  #  Constructed for dimers: 1.75 A, 2.0 A, 2.25 A, 2.75 A, 3.75 A
  #
  ################################################################################
  #  "First tier" - improvements: -571.96 meV to -37.03 meV
       hydro 3 d 4.2
       hydro 2 p 1.4
  #     hydro 4 f 6.2
       ionic 3 s auto
  #  "Second tier" - improvements: -16.76 meV to -3.03 meV
  #     hydro 3 d 9
  #     hydro 5 g 9.4
  #     hydro 4 p 4
  #     hydro 1 s 0.65
  #  "Third tier" - improvements: -3.89 meV to -0.60 meV
  #     ionic 3 d auto
  #     hydro 3 s 2.6
  #     hydro 4 f 8.4
  #     hydro 3 d 3.4
  #     hydro 3 p 7.8
  #  "Fourth tier" - improvements: -0.33 meV to -0.11 meV
  #     hydro 2 p 1.6
  #     hydro 5 g 10.8
  #     hydro 5 f 11.2
  #     hydro 3 d 1
  #     hydro 4 s 4.5
  #  Further basis functions that fell out of the optimization - noise
  #  level... < -0.08 meV
  #     hydro 4 d 6.6
  #     hydro 5 g 16.4
  #     hydro 4 d 9
  
  -----------------------------------------------------------------------
  Completed first pass over input file control.in .
  -----------------------------------------------------------------------
  
  
  -----------------------------------------------------------------------
  Parsing geometry.in (first pass over file, find array dimensions only).
  The contents of geometry.in will be repeated verbatim below
  unless switched off by setting 'verbatim_writeout .false.' .
  in the first line of geometry.in .
  -----------------------------------------------------------------------
  
  lattice_vector 2.7 2.7 0.0
  lattice_vector 2.7 0.0 2.7
  lattice_vector 0.0 2.7 2.7
  atom_frac 0.00 0.00 0.00 Si
  constrain_relaxation .true.
  atom_frac 0.25 0.25 0.25 Si	
  constrain_relaxation .true.
  
  -----------------------------------------------------------------------
  Completed first pass over input file geometry.in .
  -----------------------------------------------------------------------
  

  Basic array size parameters:
  | Number of species                 :        1
  | Number of atoms                   :        2
  | Number of lattice vectors         :        3
  | Max. basis fn. angular momentum   :        2
  | Max. atomic/ionic basis occupied n:        3
  | Max. number of basis fn. types    :        3
  | Max. radial fns per species/type  :        5
  | Max. logarithmic grid size        :     1346
  | Max. radial integration grid size :       42
  | Max. angular integration grid size:      302
  | Max. angular grid division number :        8
  | Radial grid for Hartree potential :     1346
  | Number of spin channels           :        1

------------------------------------------------------------
          Reading file control.in.
------------------------------------------------------------
  XC: Using Perdew-Wang parametrisation of Ceperley-Alder LDA.
  Charge =   0.000000E+00: Neutral system requested explicitly.
  Spin treatment: No spin polarisation.
  Non-relativistic treatment of kinetic energy.
  Occupation type: Gaussian broadening, width =   0.100000E-01 eV.
  Convergence accuracy of self-consistent charge density:  0.1000E-04
  Convergence accuracy of sum of eigenvalues:  0.1000E-02
  Convergence accuracy of total energy:  0.1000E-05
  Convergence accuracy of forces:  0.1000E-02
  Geometry relaxation: Modified BFGS - TRM (trust radius method, i.e., trusted quadratic extrapolation).
  Convergence accuracy for geometry relaxation: Maximum force <   0.100000E-01 eV/A.
  Found k-point grid:         8         8         8
 
  Reading configuration options for species Si                  .
  | Found nuclear charge :  14.0000
  | Found atomic mass :    28.0855000000000      amu
  | Found l_max for Hartree potential  :   4
  | Found cutoff potl. onset [A], width [A], scale factor :    3.50000    1.50000    1.00000
  | Threshold for basis-dependent cutoff potential is   0.100000E-03
  | Found data for basic radial integration grid :    42 points, outermost radius =    5.000 A
  | Found multiplier for basic radial grid :   1
  | Found angular grid specification: user-specified.
  | Specified grid contains     5 separate shells.
  | Check grid settings after all constraints further below.
  | Found free-atom valence shell :  3 s   2.000
  | Found free-atom valence shell :  3 p   2.000
  | Found free-ion valence shell :  3 s   1.000
  | Found free-ion valence shell :  3 p   1.000
  | Found hydrogenic basis function :  3 d   4.200
  | Found hydrogenic basis function :  2 p   1.400
  | Found ionic basis function :  3 s , default cutoff radius.
  Species Si                  : Missing cutoff potential type.
  Defaulting to exp(1/x)/(1-x)^2 type cutoff potential.
  Species Si: No 'logarithmic' tag. Using default grid for free atom:
  | Default logarithmic grid data [bohr] : 0.1000E-03 0.1000E+03 0.1012E+01
  | Will include ionic basis functions of  2.0-fold positive Si                   ion.
  Species Si: On-site basis accuracy parameter (for Gram-Schmidt orthonormalisation) not specified.
  Using default value basis_acc =  0.1000000E-03.
  Species Si                  : Using default innermost maximum threshold i_radial=  2 for radial functions.
  Species Si                  : Default cutoff onset for free atom density etc. : 0.35000000E+01 AA.
  Species Si                  : Basic radial grid will be enhanced according to radial_multiplier =   1, to contain    42 grid points.
 
  Finished reading input file 'control.in'. Consistency checks are next.
 
  Target number of points in a grid batch is not set. Defaulting to  100
  Method for grid partitioning is not set. Defaulting to parallel hash+maxmin partitioning.
  Batch size limit is not set. Defaulting to    200
  By default, will store active basis functions for each batch.
  If in need of memory, prune_basis_once .false. can be used to disable this option.
  communication_type for Hartree potential was not specified.
  Defaulting to calc_hartree .
  Defaulting to Pulay charge density mixer.
  Pulay mixer: Number of relevant iterations not set.
  Defaulting to    8 iterations.
  Pulay mixer: Number of initial linear mixing iterations not set.
  Defaulting to    0 iterations.
  Work space size for distributed Hartree potential not set.
  Defaulting to   0.200000E+03 MB.
  Mixing parameter for charge density mixing has not been set.
  Using default: charge_mix_param =     0.2000.
  Algorithm-dependent basis array size parameters:
  | n_max_pulay                         :        8
  Maximum number of self-consistency iterations not provided.
  Presetting  1000 iterations.
  No maximum number of relaxation steps, defaulting to     1000
  Default initial Hessian is Lindh matrix (thres = 15.00) plus  0.200000E+01 eV/A^2 times unity.
  No maximum energy tolerance for TRM/BFGS moves, defaulting to   0.200000E-03
  No harmonic length scale. Defaulting to   0.250000E-01 A.
  No trust radius initializer. Defaulting to   0.200000E+00 A.
  Unit cell relaxation: Unit cell will be relaxed fully.
  Unit cell relaxation: Analytical stress will be used.
  Analytical stress will be computed.
  Analytical stress calculation: Only the upper triangle is calculated.
                                 Final output is symmetrized.
  Analytical stress calculation: scf convergence accuracy of stress not set.
                                 Analytical stress self-consistency will not be checked explicitly.
                                 Be sure to set other criteria like sc_accuracy_eev tight enough.
  Handling of forces: Unphysical translation and rotation will be removed from forces.
  No accuracy limit for integral partition fn. given. Defaulting to  0.1000E-14.
  No threshold value for u(r) in integrations given. Defaulting to  0.1000E-05.
  No accuracy for occupation numbers given. Defaulting to  0.1000E-07.
  No threshold value for occupation numbers given. Defaulting to  0.0000E+00.
  No accuracy for fermi level given. Defaulting to  0.1000E-19.
  Maximum # of iterations to find E_F not set. Defaulting to  200.
  Preferred method for the eigenvalue solver ('KS_method') not specified in 'control.in'.
  Defaulting to serial version, 'lapack_fast', since more k-points than CPUs available.
  Will not use alltoall communication since running on < 1024 CPUs.
  Threshold for basis singularities not set.
  Default threshold for basis singularities:  0.1000E-04
  partition_type (choice of integration weights) for integrals was not specified.
  | Using a version of the partition function of Stratmann and coworkers ('stratmann_smoother').
  | At each grid point, the set of atoms used to build the partition table is smoothly restricted to
  | only those atoms whose free-atom density would be non-zero at that grid point.
  Partitioning for Hartree potential was not defined. Using partition_type for integrals.
  | Adjusted default value of keyword multip_moments_threshold to:       0.10000000E-11
  | This value may affect high angular momentum components of the Hartree potential in periodic systems.
  Angular momentum expansion for Kerker preconditioner not set explicitly.
  | Using default value of   0
  No explicit requirement for turning off preconditioner.
  | By default, it will be turned off when the charge convergence reaches
  | sc_accuracy_rho  =   0.100000E-04
  | sc_accuracy_eev  =   0.100000E-02
  | sc_accuracy_etot =   0.100000E-05
  No special mixing parameter while Kerker preconditioner is on.
  Using default: charge_mix_param =     0.2000.
  No q(lm)/r^(l+1) cutoff set for long-range Hartree potential.
  | Using default value of  0.100000E-09 .
  | Verify using the multipole_threshold keyword.
  Defaulting to new monopole extrapolation.
  Density update method: automatic selection selected.
  Using density matrix based charge density update.
  Using density matrix based charge density update.
  Using packed matrix style: index .
  Geometry relaxation: A file "geometry.in.next_step" is written out by default after each step.
  | This file contains the geometry of the current relaxation step as well as
  | the current Hessian matrix needed to restart the relaxation algorithm.
  | If you do not want part or all of this information, use the keywords
  | "write_restart_geometry" or "hessian_to_restart_geometry" to switch the output off.
  Defaulting to use time-reversal symmetry for k-point grid.
------------------------------------------------------------


------------------------------------------------------------
          Reading geometry description geometry.in.
------------------------------------------------------------
  Found relaxation constraint for atom      1: All coordinates fixed.
  Found relaxation constraint for atom      2: All coordinates fixed.
 * Attention. You are trying to treat an element beyond Ne (Z=10) without
 * accounting for relativity. This will lead to slight deviations from the true
 * physics of the system. Check your results if in doubt.
  Input structure read successfully.
  The structure contains        2 atoms,  and a total of         28.000 electrons.

  Input geometry:
  | Unit cell:
  |         2.700000         2.700000         0.000000
  |         2.700000         0.000000         2.700000
  |         0.000000         2.700000         2.700000
  | Atomic structure:
  |       Atom                x [A]            y [A]            z [A]
  |    1: Species Si             0.000000         0.000000         0.000000
  |    2: Species Si             1.350000         1.350000         1.350000
  |

  | The smallest distance between any two atoms is         2.33826859 AA.
  |
  | The first atom of this pair is atom number                      1 .
  | The second atom of this pair is atom number                     2 .
  | Wigner-Seitz cell of the first atom image           0     0     1 .
  | (The Wigner-Seitz cell of the second atom is 0 0 0  by definition.)

  Quantities derived from the lattice vectors:
  | Reciprocal lattice vector 1:  1.163553  1.163553 -1.163553
  | Reciprocal lattice vector 2:  1.163553 -1.163553  1.163553
  | Reciprocal lattice vector 3: -1.163553  1.163553  1.163553
  | Unit cell volume                               :   0.393660E+02  A^3

  Number of empty states per atom not set in control.in - providing a guess from actual geometry.
  | Total number of empty states used during s.c.f. cycle:        6
  If you use a very high smearing, use empty_states (per atom!) in control.in to increase this value.

  Structure-dependent array size parameters: 
  | Maximum number of distinct radial functions  :        8
  | Maximum number of basis functions            :       36
  | Number of Kohn-Sham states (occupied + empty):       20
------------------------------------------------------------

------------------------------------------------------------
          Preparing all fixed parts of the calculation.
------------------------------------------------------------
  Determining machine precision:
    2.225073858507201E-308
  Setting up grids for atomic and cluster calculations.

  Creating wave function, potential, and density for free atoms.

  Species: Si

  List of occupied orbitals and eigenvalues:
    n    l              occ      energy [Ha]    energy [eV]
    1    0           2.0000       -65.172154     -1773.4245
    2    0           2.0000        -5.063250      -137.7780
    3    0           2.0000        -0.389854       -10.6085
    2    1           6.0000        -3.503088       -95.3239
    3    1           2.0000        -0.144317        -3.9271

  Creating fixed part of basis set: Ionic, confined, hydrogenic.
 
  Si                   ion:

  List of free ionic orbitals and eigenvalues:
    n    l      energy [Ha]    energy [eV]
    1    0       -66.042358     -1797.1040
    2    0        -5.909940      -160.8177
    3    0        -1.075552       -29.2673
    2    1        -4.350945      -118.3952
    3    1        -0.781825       -21.2745


  List of ionic basis orbitals and eigenvalues:
    n    l      energy [Ha]    energy [eV]    outer radius [A]
    3    0        -1.075532       -29.2667       4.214062

 
  Si                   hydrogenic:
 
  List of hydrogenic basis orbitals: 
    n    l      effective z      eigenvalue [eV]  inner max. [A]     outer max. [A]     outer radius [A]   
    3    2         4.200000       -26.6624           1.139231           1.139231           4.534782
    2    1         1.400000        -6.4613           1.472672           1.472672           4.590560
 

  Adding cutoff potential to free-atom effective potential.
  Creating atomic-like basis functions for current effective potential.

  Species Si                  :

  List of atomic basis orbitals and eigenvalues:
    n    l      energy [Ha]    energy [eV]    outer radius [A]
    1    0       -65.172154     -1773.4245       0.789468
    2    0        -5.063250      -137.7780       2.815114
    3    0        -0.389854       -10.6085       4.534782
    2    1        -3.503088       -95.3239       3.259919
    3    1        -0.144317        -3.9271       4.590560

  Assembling full basis from fixed parts.
  | Species Si :   atomic orbital   1 s accepted.
  | Species Si :   atomic orbital   2 s accepted.
  | Species Si :    ionic orbital   3 s accepted.
  | Species Si :   atomic orbital   3 s accepted.
  | Species Si :   atomic orbital   2 p accepted.
  | Species Si :   atomic orbital   3 p accepted.
  | Species Si :    hydro orbital   2 p accepted.
  | Species Si :    hydro orbital   3 d accepted.
 
  Basis size parameters after reduction:
  | Total number of radial functions:        8
  | Total number of basis functions :       36
 
  Testing on-site integration grid accuracy.
  |  Species  Function  <phi|h_atom|phi> (log., in eV)  <phi|h_atom|phi> (rad., in eV)
           1        1              -1773.4245382485              -1773.4238465557
           1        2               -137.7780422334               -137.7780383875
           1        3                -10.2584966028                -10.2583645750
           1        4                  5.0172755718                  4.9378117642 ***
           1        5                -95.3238759277                -95.3238759093
           1        6                 -3.9367923774                 -3.9521708118
           1        7                  6.3364624620                  6.1540591176 ***
           1        8                  6.2680607190                  6.2659437726
 * Note: Onsite integrals marked "***" above are less accurate than
 * onsite_accuracy_threshold =    0.03000 eV. Usually, this is harmless.
 * When in doubt, tighten the "radial" and/or "radial_multiplier" flags to check.

  Preparing densities etc. for the partition functions (integrals / Hartree potential).

  Preparations completed.
  max(cpu_time)          :      0.200 s.
  Wall clock time (cpu1) :      0.206 s.
------------------------------------------------------------

------------------------------------------------------------
          Begin self-consistency loop: Initialization.

          Date     :  20160131, Time     :  145427.443
------------------------------------------------------------

  Initializing index lists of integration centers etc. from given atomic structure:
  Mapping all atomic coordinates to central unit cell.

  Initializing the k-points
          Using symmetry for reducing the k-points
  | k-points reduced from:      512 to      260
  | Number of k-points                             :       260
  The eigenvectors in the calculations are COMPLEX.
  | K-points in task   0:       130
  | K-points in task   1:       130
  | Number of basis functions in the Hamiltonian integrals :      1472
  | Number of basis functions in a single unit cell        :        36
  | Number of centers in hartree potential         :       480
  | Number of centers in hartree multipole         :       324
  | Number of centers in electron density summation:       198
  | Number of centers in basis integrals           :       228
  | Number of centers in integrals                 :       101
  | Number of centers in hamiltonian               :       198
  | Consuming        455 KiB for k_phase.
  | Number of super-cells (origin) [n_cells]                     :        1331
  | Number of super-cells (after PM_index) [n_cells]             :         112
  | Number of super-cells in hamiltonian [n_cells_in_hamiltonian]:         112
  | Size of matrix packed + index :       43503
  Initializing relaxation algorithms.
  Partitioning the integration grid into batches with parallel hashing+maxmin method.
  | Number of batches:      166
  | Maximal batch size:     108
  | Minimal batch size:      50
  | Average batch size:      67.518
  | Standard deviation of batch sizes:      17.919

  Integration load balanced across     2 MPI tasks.
  Work distribution over tasks is as follows:
  Task     0 has       5579 integration points.
  Task     1 has       5629 integration points.
  Initializing partition tables, free-atom densities, potentials, etc. across the integration grid (initialize_grid_storage).
  | initialize_grid_storage: Actual outermost partition radius vs. multipole_radius_free
  | (-- VB: in principle, multipole_radius_free should be larger, hence this output)
  | Species        1: Confinement radius =              4.999999999999999 AA, multipole_radius_free =              5.000694715736543 AA.
  | Species        1: outer_partition_radius set to              5.000694715736543 AA .
  | Original list of interatomic distances with         228 x        228 entries is created.
  | Net number of integration points:    11208
  | of which are non-zero points    :     9724
  | Numerical average free-atom electrostatic potential    :    -13.38822374 eV
  Obtaining max. number of non-zero basis functions in each batch (get_n_compute_maxes).
  | Maximal number of non-zero basis functions:      489 in task     0
  | Maximal number of non-zero basis functions:      484 in task     1
  Integrating Hamiltonian matrix: batch-based integration.
  Time summed over all CPUs for integration: real work        0.941 s, elapsed        0.945 s
  Integrating overlap matrix.
  Transforming overlap matrix and checking for singularities.
  Time summed over all CPUs for integration: real work        0.657 s, elapsed        0.664 s
  Decreasing sparse matrix size:
   Tolerance:  9.999999824516700E-014
   Hamiltonian matrix
  | Array has    37553 nonzero elements out of    43503 elements
  | Sparsity factor is 0.137
   Overlap matrix
  | Array has    36168 nonzero elements out of    43503 elements
  | Sparsity factor is 0.169
  New size of hamiltonian matrix:       37811

  Updating Kohn-Sham eigenvalues, eigenvectors, occupation numbers, and Fermi level.
  Solving generalized eigenproblem
  Overlap matrix is nonsingular at first k-point:
  | Lowest eigenvalue:  0.394196E-02
  Determining occupation numbers for Kohn-Sham eigenstates.
  | Chemical potential (Fermi level) in eV                 : -.56083098E+01
  | Error in electron count due to remaining E_F inaccuracy: 0.00000000E+00
  | Maximum occupation number of highest empty state:  0.00E+00

  Writing Kohn-Sham eigenvalues.
  K-point:       1 at    0.000000    0.000000    0.000000 (in units of recip. lattice)

  State    Occupation    Eigenvalue [Ha]    Eigenvalue [eV]
      1       2.00000         -65.195151        -1774.05032
      2       2.00000         -65.195151        -1774.05032
      3       2.00000          -5.091352         -138.54273
      4       2.00000          -5.091013         -138.53350
      5       2.00000          -3.531163          -96.08783
      6       2.00000          -3.531163          -96.08783
      7       2.00000          -3.531163          -96.08783
      8       2.00000          -3.530476          -96.06913
      9       2.00000          -3.530476          -96.06913
     10       2.00000          -3.530476          -96.06913
     11       2.00000          -0.672036          -18.28704
     12       2.00000          -0.235589           -6.41070
     13       2.00000          -0.235589           -6.41070
     14       2.00000          -0.235589           -6.41070
     15       0.00000          -0.131116           -3.56784
     16       0.00000          -0.131116           -3.56784
     17       0.00000          -0.131116           -3.56784
     18       0.00000          -0.101439           -2.76029
     19       0.00000           0.063492            1.72771
     20       0.00000           0.063492            1.72771

  What follows are estimated values for band gap, HOMO, LUMO, etc.
  | They are estimated on a discrete k-point grid and not necessarily exact.
  | For converged numbers, create a DOS and/or band structure plot on a denser k-grid.

  Highest occupied state (VBM) at     -6.41069799 eV (relative to internal zero)
  | Occupation number:      2.00000000
  | K-point:       1 at    0.000000    0.000000    0.000000 (in units of recip. lattice)

  Lowest unoccupied state (CBM) at    -5.50465323 eV (relative to internal zero)
  | Occupation number:      0.00000000
  | K-point:      30 at    0.000000    0.625000    0.625000 (in units of recip. lattice)

  ESTIMATED overall HOMO-LUMO gap:      0.90604476 eV between HOMO at k-point 1 and LUMO at k-point 30
  | This appears to be an indirect band gap.
  | Smallest direct gap :      2.84285674 eV for k_point 1 at    0.000000    0.625000    0.625000 (in units of recip. lattice)
  The gap value is above 0.2 eV. Unless you are using a very sparse k-point grid,
  this system is most likely an insulator or a semiconductor.
  Calculating total energy contributions from superposition of free atom densities.

  Total energy components:
  | Sum of eigenvalues            :        -326.86346245 Ha       -8894.40735582 eV
  | XC energy correction          :         -39.56106107 Ha       -1076.51124396 eV
  | XC potential correction       :          52.26544033 Ha        1422.21499294 eV
  | Free-atom electrostatic energy:        -262.66983578 Ha       -7147.60989787 eV
  | Hartree energy correction     :           0.00000000 Ha           0.00000000 eV
  | Entropy correction            :           0.00000000 Ha           0.00000000 eV
  | ---------------------------
  | Total energy                  :        -576.82891897 Ha      -15696.31350470 eV
  | Total energy, T -> 0          :        -576.82891897 Ha      -15696.31350470 eV  <-- do not rely on this value for anything but (periodic) metals
  | Electronic free energy        :        -576.82891897 Ha      -15696.31350470 eV

  Derived energy quantities:
  | Kinetic energy                :         575.55044399 Ha       15661.52443045 eV
  | Electrostatic energy          :       -1112.81830188 Ha      -30281.32669120 eV
  | Energy correction for multipole
  | error in Hartree potential    :           0.00000000 Ha           0.00000000 eV
  | Sum of eigenvalues per atom                           :       -4447.20367791 eV
  | Total energy (T->0) per atom                          :       -7848.15675235 eV  <-- do not rely on this value for anything but (periodic) metals
  | Electronic free energy per atom                       :       -7848.15675235 eV
  Initialize hartree_potential_storage
  Max. number of atoms included in rho_multipole:            2

  End scf initialization - timings             :  max(cpu_time)    wall_clock(cpu1)
  | Time for scf. initialization               :        1.590 s           1.724 s
  | Boundary condition initialization          :        0.100 s           0.096 s
  | Relaxation initialization                  :        0.010 s           0.001 s
  | Integration                                :        0.800 s           0.806 s
  | Solution of K.-S. eqns.                    :        0.350 s           0.475 s
  | Grid partitioning                          :        0.050 s           0.045 s
  | Preloading free-atom quantities on grid    :        0.000 s           0.003 s
  | Free-atom superposition energy             :        0.040 s           0.039 s
  | Total energy evaluation                    :        0.010 s           0.001 s
------------------------------------------------------------

------------------------------------------------------------
          Begin self-consistency iteration #    1

  Date     :  20160131, Time     :  145429.167
------------------------------------------------------------
  Evaluating new KS density using the density matrix
  Evaluating density matrix
  Time summed over all CPUs for getting density from density matrix: real work        0.964 s, elapsed        0.974 s
  Integration grid: deviation in total charge (<rho> - N_e) =  -7.105427E-15
  Pulay mixing of updated and previous charge densities.

  Evaluating partitioned Hartree potential by multipole expansion.
  | Analytical far-field extrapolation by fixed multipoles:
  | Hartree multipole sum: apparent total charge =   0.775142E-03
  Summing up the Hartree potential.
  | Estimated reciprocal-space cutoff momentum G_max:         3.15033928 bohr^-1 .
  | Reciprocal lattice points for long-range Hartree potential:     136
  Time summed over all CPUs for potential: real work        0.600 s, elapsed        0.602 s
  | RMS charge density error from multipole expansion :   0.218702E-02
  | Average real-space part of the electrostatic potential :      0.07686991 eV

  Integrating Hamiltonian matrix: batch-based integration.
  Time summed over all CPUs for integration: real work        0.944 s, elapsed        0.944 s

  Updating Kohn-Sham eigenvalues, eigenvectors, occupation numbers, and Fermi level.
  Solving generalized eigenproblem
  Determining occupation numbers for Kohn-Sham eigenstates.
  | Chemical potential (Fermi level) in eV                 : -.61054214E+01
  | Error in electron count due to remaining E_F inaccuracy: 0.00000000E+00
  | Maximum occupation number of highest empty state:  0.00E+00

  Writing Kohn-Sham eigenvalues.
  K-point:       1 at    0.000000    0.000000    0.000000 (in units of recip. lattice)

  State    Occupation    Eigenvalue [Ha]    Eigenvalue [eV]
      1       2.00000         -65.186076        -1773.80337
      2       2.00000         -65.186076        -1773.80337
      3       2.00000          -5.084524         -138.35695
      4       2.00000          -5.084185         -138.34771
      5       2.00000          -3.524097          -95.89555
      6       2.00000          -3.524097          -95.89555
      7       2.00000          -3.524097          -95.89555
      8       2.00000          -3.523409          -95.87684
      9       2.00000          -3.523409          -95.87684
     10       2.00000          -3.523409          -95.87684
     11       2.00000          -0.669026          -18.20513
     12       2.00000          -0.231244           -6.29248
     13       2.00000          -0.231244           -6.29248
     14       2.00000          -0.231244           -6.29248
     15       0.00000          -0.128912           -3.50786
     16       0.00000          -0.128912           -3.50786
     17       0.00000          -0.128912           -3.50786
     18       0.00000          -0.096857           -2.63561
     19       0.00000           0.065709            1.78802
     20       0.00000           0.065709            1.78802

  What follows are estimated values for band gap, HOMO, LUMO, etc.
  | They are estimated on a discrete k-point grid and not necessarily exact.
  | For converged numbers, create a DOS and/or band structure plot on a denser k-grid.

  Highest occupied state (VBM) at     -6.29247882 eV (relative to internal zero)
  | Occupation number:      2.00000000
  | K-point:       1 at    0.000000    0.000000    0.000000 (in units of recip. lattice)

  Lowest unoccupied state (CBM) at    -5.47187959 eV (relative to internal zero)
  | Occupation number:      0.00000000
  | K-point:     149 at    0.375000    0.375000    0.000000 (in units of recip. lattice)

  ESTIMATED overall HOMO-LUMO gap:      0.82059922 eV between HOMO at k-point 1 and LUMO at k-point 149
  | This appears to be an indirect band gap.
  | Smallest direct gap :      2.78461712 eV for k_point 1 at    0.375000    0.375000    0.000000 (in units of recip. lattice)
  The gap value is above 0.2 eV. Unless you are using a very sparse k-point grid,
  this system is most likely an insulator or a semiconductor.

  Total energy components:
  | Sum of eigenvalues            :        -326.68844929 Ha       -8889.64500542 eV
  | XC energy correction          :         -39.57197220 Ha       -1076.80815087 eV
  | XC potential correction       :          52.27982083 Ha        1422.60630612 eV
  | Free-atom electrostatic energy:        -262.66983578 Ha       -7147.60989787 eV
  | Hartree energy correction     :          -0.17567808 Ha          -4.78044366 eV
  | Entropy correction            :           0.00000000 Ha           0.00000000 eV
  | ---------------------------
  | Total energy                  :        -576.82611452 Ha      -15696.23719171 eV
  | Total energy, T -> 0          :        -576.82611452 Ha      -15696.23719171 eV  <-- do not rely on this value for anything but (periodic) metals
  | Electronic free energy        :        -576.82611452 Ha      -15696.23719171 eV

  Derived energy quantities:
  | Kinetic energy                :         575.58423026 Ha       15662.44380162 eV
  | Electrostatic energy          :       -1112.83837257 Ha      -30281.87284245 eV
  | Energy correction for multipole
  | error in Hartree potential    :           0.00288447 Ha           0.07849044 eV
  | Sum of eigenvalues per atom                           :       -4444.82250271 eV
  | Total energy (T->0) per atom                          :       -7848.11859586 eV  <-- do not rely on this value for anything but (periodic) metals
  | Electronic free energy per atom                       :       -7848.11859586 eV

  Self-consistency convergence accuracy:
  | Change of charge density      :  0.1078E+00
  | Change of sum of eigenvalues  :  0.4762E+01 eV
  | Change of total energy        :  0.7631E-01 eV

  End self-consistency iteration #     1       :  max(cpu_time)    wall_clock(cpu1)
  | Time for this iteration                    :        1.490 s           1.493 s
  | Charge density update                      :        0.520 s           0.517 s
  | Density mixing & preconditioning           :        0.050 s           0.049 s
  | Hartree multipole update                   :        0.000 s           0.001 s
  | Hartree multipole summation                :        0.300 s           0.306 s
  | Integration                                :        0.470 s           0.474 s
  | Solution of K.-S. eqns.                    :        0.150 s           0.144 s
  | Total energy evaluation                    :        0.000 s           0.000 s
------------------------------------------------------------

------------------------------------------------------------
          Begin self-consistency iteration #    2

  Date     :  20160131, Time     :  145430.660
------------------------------------------------------------
  Evaluating new KS density using the density matrix
  Evaluating density matrix
  Time summed over all CPUs for getting density from density matrix: real work        1.156 s, elapsed        1.168 s
  Integration grid: deviation in total charge (<rho> - N_e) =  -5.329071E-14
  Pulay mixing of updated and previous charge densities.

  Evaluating partitioned Hartree potential by multipole expansion.
  | Analytical far-field extrapolation by fixed multipoles:
  | Hartree multipole sum: apparent total charge =   0.361035E-02
  Summing up the Hartree potential.
  Time summed over all CPUs for potential: real work        0.702 s, elapsed        0.760 s
  | RMS charge density error from multipole expansion :   0.102351E-01
  | Average real-space part of the electrostatic potential :      0.34492629 eV

  Integrating Hamiltonian matrix: batch-based integration.
  Time summed over all CPUs for integration: real work        1.053 s, elapsed        1.158 s

  Updating Kohn-Sham eigenvalues, eigenvectors, occupation numbers, and Fermi level.
  Solving generalized eigenproblem
  Determining occupation numbers for Kohn-Sham eigenstates.
  | Chemical potential (Fermi level) in eV                 : -.58153797E+01
  | Error in electron count due to remaining E_F inaccuracy: -.15809576E-10
  | Maximum occupation number of highest empty state:  0.00E+00

  What follows are estimated values for band gap, HOMO, LUMO, etc.
  | They are estimated on a discrete k-point grid and not necessarily exact.
  | For converged numbers, create a DOS and/or band structure plot on a denser k-grid.

  Highest occupied state (VBM) at     -5.85744532 eV (relative to internal zero)
  | Occupation number:      2.00000000
  | K-point:       1 at    0.000000    0.000000    0.000000 (in units of recip. lattice)

  Lowest unoccupied state (CBM) at    -5.33825754 eV (relative to internal zero)
  | Occupation number:      0.00000000
  | K-point:     133 at    0.375000    0.000000    0.375000 (in units of recip. lattice)

  ESTIMATED overall HOMO-LUMO gap:      0.51918777 eV between HOMO at k-point 1 and LUMO at k-point 133
  | This appears to be an indirect band gap.
  | Smallest direct gap :      2.56893425 eV for k_point 1 at    0.375000    0.000000    0.375000 (in units of recip. lattice)
  The gap value is above 0.2 eV. Unless you are using a very sparse k-point grid,
  this system is most likely an insulator or a semiconductor.

  Total energy components:
  | Sum of eigenvalues            :        -326.10648543 Ha       -8873.80896289 eV
  | XC energy correction          :         -39.61511870 Ha       -1077.98222700 eV
  | XC potential correction       :          52.33664622 Ha        1424.15260368 eV
  | Free-atom electrostatic energy:        -262.66983578 Ha       -7147.60989787 eV
  | Hartree energy correction     :          -0.76748022 Ha         -20.88419933 eV
  | Entropy correction            :           0.00000000 Ha           0.00000000 eV
  | ---------------------------
  | Total energy                  :        -576.82227391 Ha      -15696.13268341 eV
  | Total energy, T -> 0          :        -576.82227391 Ha      -15696.13268341 eV  <-- do not rely on this value for anything but (periodic) metals
  | Electronic free energy        :        -576.82227391 Ha      -15696.13268341 eV

  Derived energy quantities:
  | Kinetic energy                :         575.63699196 Ha       15663.87952052 eV
  | Electrostatic energy          :       -1112.84414716 Ha      -30282.02997694 eV
  | Energy correction for multipole
  | error in Hartree potential    :           0.01349843 Ha           0.36731099 eV
  | Sum of eigenvalues per atom                           :       -4436.90448144 eV
  | Total energy (T->0) per atom                          :       -7848.06634171 eV  <-- do not rely on this value for anything but (periodic) metals
  | Electronic free energy per atom                       :       -7848.06634171 eV

  Self-consistency convergence accuracy:
  | Change of charge density      :  0.8497E-01
  | Change of sum of eigenvalues  :  0.1584E+02 eV
  | Change of total energy        :  0.1045E+00 eV

  End self-consistency iteration #     2       :  max(cpu_time)    wall_clock(cpu1)
  | Time for this iteration                    :        1.650 s           1.773 s
  | Charge density update                      :        0.510 s           0.613 s
  | Density mixing & preconditioning           :        0.040 s           0.047 s
  | Hartree multipole update                   :        0.000 s           0.002 s
  | Hartree multipole summation                :        0.380 s           0.385 s
  | Integration                                :        0.580 s           0.580 s
  | Solution of K.-S. eqns.                    :        0.150 s           0.146 s
  | Total energy evaluation                    :        0.010 s           0.000 s
------------------------------------------------------------

------------------------------------------------------------
          Begin self-consistency iteration #    3

  Date     :  20160131, Time     :  145432.433
------------------------------------------------------------
  Evaluating new KS density using the density matrix
  Evaluating density matrix
  Time summed over all CPUs for getting density from density matrix: real work        0.973 s, elapsed        0.991 s
  Integration grid: deviation in total charge (<rho> - N_e) =  -1.584155E-11
  Pulay mixing of updated and previous charge densities.

  Evaluating partitioned Hartree potential by multipole expansion.
  | Analytical far-field extrapolation by fixed multipoles:
  | Hartree multipole sum: apparent total charge =   0.381426E-02
  Summing up the Hartree potential.
  Time summed over all CPUs for potential: real work        0.653 s, elapsed        0.661 s
  | RMS charge density error from multipole expansion :   0.109058E-01
  | Average real-space part of the electrostatic potential :      0.30927722 eV

  Integrating Hamiltonian matrix: batch-based integration.
  Time summed over all CPUs for integration: real work        0.941 s, elapsed        0.946 s

  Updating Kohn-Sham eigenvalues, eigenvectors, occupation numbers, and Fermi level.
  Solving generalized eigenproblem
  Determining occupation numbers for Kohn-Sham eigenstates.
  | Chemical potential (Fermi level) in eV                 : -.55150249E+01
  | Error in electron count due to remaining E_F inaccuracy: 0.00000000E+00
  | Maximum occupation number of highest empty state:  0.00E+00

  What follows are estimated values for band gap, HOMO, LUMO, etc.
  | They are estimated on a discrete k-point grid and not necessarily exact.
  | For converged numbers, create a DOS and/or band structure plot on a denser k-grid.

  Highest occupied state (VBM) at     -5.90108069 eV (relative to internal zero)
  | Occupation number:      2.00000000
  | K-point:       1 at    0.000000    0.000000    0.000000 (in units of recip. lattice)

  Lowest unoccupied state (CBM) at    -5.34773092 eV (relative to internal zero)
  | Occupation number:      0.00000000
  | K-point:     133 at    0.375000    0.000000    0.375000 (in units of recip. lattice)

  ESTIMATED overall HOMO-LUMO gap:      0.55334977 eV between HOMO at k-point 1 and LUMO at k-point 133
  | This appears to be an indirect band gap.
  | Smallest direct gap :      2.58502310 eV for k_point 1 at    0.375000    0.000000    0.375000 (in units of recip. lattice)
  The gap value is above 0.2 eV. Unless you are using a very sparse k-point grid,
  this system is most likely an insulator or a semiconductor.

  Total energy components:
  | Sum of eigenvalues            :        -326.31073882 Ha       -8879.36698046 eV
  | XC energy correction          :         -39.59911850 Ha       -1077.54683927 eV
  | XC potential correction       :          52.31546505 Ha        1423.57623480 eV
  | Free-atom electrostatic energy:        -262.66983578 Ha       -7147.60989787 eV
  | Hartree energy correction     :          -0.55778310 Ha         -15.17805046 eV
  | Entropy correction            :           0.00000000 Ha           0.00000000 eV
  | ---------------------------
  | Total energy                  :        -576.82201114 Ha      -15696.12553326 eV
  | Total energy, T -> 0          :        -576.82201114 Ha      -15696.12553326 eV  <-- do not rely on this value for anything but (periodic) metals
  | Electronic free energy        :        -576.82201114 Ha      -15696.12553326 eV

  Derived energy quantities:
  | Kinetic energy                :         575.42421796 Ha       15658.08964554 eV
  | Electrostatic energy          :       -1112.64711061 Ha      -30276.66833953 eV
  | Energy correction for multipole
  | error in Hartree potential    :           0.01431605 Ha           0.38955954 eV
  | Sum of eigenvalues per atom                           :       -4439.68349023 eV
  | Total energy (T->0) per atom                          :       -7848.06276663 eV  <-- do not rely on this value for anything but (periodic) metals
  | Electronic free energy per atom                       :       -7848.06276663 eV

  Self-consistency convergence accuracy:
  | Change of charge density      :  0.1292E-01
  | Change of sum of eigenvalues  : -0.5558E+01 eV
  | Change of total energy        :  0.7150E-02 eV

  End self-consistency iteration #     3       :  max(cpu_time)    wall_clock(cpu1)
  | Time for this iteration                    :        1.500 s           1.523 s
  | Charge density update                      :        0.510 s           0.525 s
  | Density mixing & preconditioning           :        0.050 s           0.044 s
  | Hartree multipole update                   :        0.010 s           0.001 s
  | Hartree multipole summation                :        0.320 s           0.336 s
  | Integration                                :        0.470 s           0.474 s
  | Solution of K.-S. eqns.                    :        0.150 s           0.142 s
  | Total energy evaluation                    :        0.000 s           0.000 s
------------------------------------------------------------

------------------------------------------------------------
          Begin self-consistency iteration #    4

  Date     :  20160131, Time     :  145433.956
------------------------------------------------------------
  Evaluating new KS density using the density matrix
  Evaluating density matrix
  Time summed over all CPUs for getting density from density matrix: real work        0.941 s, elapsed        0.945 s
  Integration grid: deviation in total charge (<rho> - N_e) =  -2.131628E-14
  Pulay mixing of updated and previous charge densities.

  Evaluating partitioned Hartree potential by multipole expansion.
  | Analytical far-field extrapolation by fixed multipoles:
  | Hartree multipole sum: apparent total charge =   0.431419E-02
  Summing up the Hartree potential.
  Time summed over all CPUs for potential: real work        0.636 s, elapsed        0.640 s
  | RMS charge density error from multipole expansion :   0.113878E-01
  | Average real-space part of the electrostatic potential :      0.31860043 eV

  Integrating Hamiltonian matrix: batch-based integration.
  Time summed over all CPUs for integration: real work        0.943 s, elapsed        0.950 s

  Updating Kohn-Sham eigenvalues, eigenvectors, occupation numbers, and Fermi level.
  Solving generalized eigenproblem
  Determining occupation numbers for Kohn-Sham eigenstates.
  | Chemical potential (Fermi level) in eV                 : -.55861449E+01
  | Error in electron count due to remaining E_F inaccuracy: 0.00000000E+00
  | Maximum occupation number of highest empty state:  0.00E+00

  What follows are estimated values for band gap, HOMO, LUMO, etc.
  | They are estimated on a discrete k-point grid and not necessarily exact.
  | For converged numbers, create a DOS and/or band structure plot on a denser k-grid.

  Highest occupied state (VBM) at     -5.88303550 eV (relative to internal zero)
  | Occupation number:      2.00000000
  | K-point:       1 at    0.000000    0.000000    0.000000 (in units of recip. lattice)

  Lowest unoccupied state (CBM) at    -5.34074801 eV (relative to internal zero)
  | Occupation number:      0.00000000
  | K-point:     133 at    0.375000    0.000000    0.375000 (in units of recip. lattice)

  ESTIMATED overall HOMO-LUMO gap:      0.54228750 eV between HOMO at k-point 1 and LUMO at k-point 133
  | This appears to be an indirect band gap.
  | Smallest direct gap :      2.57560256 eV for k_point 1 at    0.375000    0.000000    0.375000 (in units of recip. lattice)
  The gap value is above 0.2 eV. Unless you are using a very sparse k-point grid,
  this system is most likely an insulator or a semiconductor.

  Total energy components:
  | Sum of eigenvalues            :        -326.29383271 Ha       -8878.90694189 eV
  | XC energy correction          :         -39.60145465 Ha       -1077.61040911 eV
  | XC potential correction       :          52.31855155 Ha        1423.66022277 eV
  | Free-atom electrostatic energy:        -262.66983578 Ha       -7147.60989787 eV
  | Hartree energy correction     :          -0.57543085 Ha         -15.65827009 eV
  | Entropy correction            :           0.00000000 Ha           0.00000000 eV
  | ---------------------------
  | Total energy                  :        -576.82200243 Ha      -15696.12529620 eV
  | Total energy, T -> 0          :        -576.82200243 Ha      -15696.12529620 eV  <-- do not rely on this value for anything but (periodic) metals
  | Electronic free energy        :        -576.82200243 Ha      -15696.12529620 eV

  Derived energy quantities:
  | Kinetic energy                :         575.44084549 Ha       15658.54210360 eV
  | Electrostatic energy          :       -1112.66139327 Ha      -30277.05699068 eV
  | Energy correction for multipole
  | error in Hartree potential    :           0.01498504 Ha           0.40776359 eV
  | Sum of eigenvalues per atom                           :       -4439.45347094 eV
  | Total energy (T->0) per atom                          :       -7848.06264810 eV  <-- do not rely on this value for anything but (periodic) metals
  | Electronic free energy per atom                       :       -7848.06264810 eV

  Self-consistency convergence accuracy:
  | Change of charge density      :  0.3193E-02
  | Change of sum of eigenvalues  :  0.4600E+00 eV
  | Change of total energy        :  0.2371E-03 eV

  End self-consistency iteration #     4       :  max(cpu_time)    wall_clock(cpu1)
  | Time for this iteration                    :        1.500 s           1.500 s
  | Charge density update                      :        0.510 s           0.502 s
  | Density mixing & preconditioning           :        0.050 s           0.045 s
  | Hartree multipole update                   :        0.000 s           0.001 s
  | Hartree multipole summation                :        0.330 s           0.326 s
  | Integration                                :        0.480 s           0.475 s
  | Solution of K.-S. eqns.                    :        0.150 s           0.150 s
  | Total energy evaluation                    :        0.000 s           0.000 s
------------------------------------------------------------

------------------------------------------------------------
          Begin self-consistency iteration #    5

  Date     :  20160131, Time     :  145435.456
------------------------------------------------------------
  Evaluating new KS density using the density matrix
  Evaluating density matrix
  Time summed over all CPUs for getting density from density matrix: real work        0.943 s, elapsed        0.945 s
  Integration grid: deviation in total charge (<rho> - N_e) =  -1.421085E-14
  Pulay mixing of updated and previous charge densities.

  Evaluating partitioned Hartree potential by multipole expansion.
  | Analytical far-field extrapolation by fixed multipoles:
  | Hartree multipole sum: apparent total charge =   0.463598E-02
  Summing up the Hartree potential.
  Time summed over all CPUs for potential: real work        0.645 s, elapsed        0.657 s
  | RMS charge density error from multipole expansion :   0.111384E-01
  | Average real-space part of the electrostatic potential :      0.30567691 eV

  Integrating Hamiltonian matrix: batch-based integration.
  Time summed over all CPUs for integration: real work        0.962 s, elapsed        0.977 s

  Updating Kohn-Sham eigenvalues, eigenvectors, occupation numbers, and Fermi level.
  Solving generalized eigenproblem
  Determining occupation numbers for Kohn-Sham eigenstates.
  | Chemical potential (Fermi level) in eV                 : -.56120948E+01
  | Error in electron count due to remaining E_F inaccuracy: 0.00000000E+00
  | Maximum occupation number of highest empty state:  0.00E+00

  What follows are estimated values for band gap, HOMO, LUMO, etc.
  | They are estimated on a discrete k-point grid and not necessarily exact.
  | For converged numbers, create a DOS and/or band structure plot on a denser k-grid.

  Highest occupied state (VBM) at     -5.90286508 eV (relative to internal zero)
  | Occupation number:      2.00000000
  | K-point:       1 at    0.000000    0.000000    0.000000 (in units of recip. lattice)

  Lowest unoccupied state (CBM) at    -5.34684133 eV (relative to internal zero)
  | Occupation number:      0.00000000
  | K-point:     149 at    0.375000    0.375000    0.000000 (in units of recip. lattice)

  ESTIMATED overall HOMO-LUMO gap:      0.55602375 eV between HOMO at k-point 1 and LUMO at k-point 149
  | This appears to be an indirect band gap.
  | Smallest direct gap :      2.58503952 eV for k_point 1 at    0.375000    0.375000    0.000000 (in units of recip. lattice)
  The gap value is above 0.2 eV. Unless you are using a very sparse k-point grid,
  this system is most likely an insulator or a semiconductor.

  Total energy components:
  | Sum of eigenvalues            :        -326.32256145 Ha       -8879.68869077 eV
  | XC energy correction          :         -39.59962898 Ha       -1077.56073031 eV
  | XC potential correction       :          52.31615760 Ha        1423.59508009 eV
  | Free-atom electrostatic energy:        -262.66983578 Ha       -7147.60989787 eV
  | Hartree energy correction     :          -0.54610850 Ha         -14.86036848 eV
  | Entropy correction            :           0.00000000 Ha           0.00000000 eV
  | ---------------------------
  | Total energy                  :        -576.82197712 Ha      -15696.12460734 eV
  | Total energy, T -> 0          :        -576.82197712 Ha      -15696.12460734 eV  <-- do not rely on this value for anything but (periodic) metals
  | Electronic free energy        :        -576.82197712 Ha      -15696.12460734 eV

  Derived energy quantities:
  | Kinetic energy                :         575.45388369 Ha       15658.89689104 eV
  | Electrostatic energy          :       -1112.67623182 Ha      -30277.46076807 eV
  | Energy correction for multipole
  | error in Hartree potential    :           0.01467948 Ha           0.39944909 eV
  | Sum of eigenvalues per atom                           :       -4439.84434539 eV
  | Total energy (T->0) per atom                          :       -7848.06230367 eV  <-- do not rely on this value for anything but (periodic) metals
  | Electronic free energy per atom                       :       -7848.06230367 eV

  Self-consistency convergence accuracy:
  | Change of charge density      :  0.3183E-02
  | Change of sum of eigenvalues  : -0.7817E+00 eV
  | Change of total energy        :  0.6889E-03 eV

  End self-consistency iteration #     5       :  max(cpu_time)    wall_clock(cpu1)
  | Time for this iteration                    :        1.500 s           1.520 s
  | Charge density update                      :        0.500 s           0.502 s
  | Density mixing & preconditioning           :        0.050 s           0.046 s
  | Hartree multipole update                   :        0.000 s           0.001 s
  | Hartree multipole summation                :        0.340 s           0.334 s
  | Integration                                :        0.480 s           0.490 s
  | Solution of K.-S. eqns.                    :        0.150 s           0.147 s
  | Total energy evaluation                    :        0.000 s           0.000 s
------------------------------------------------------------

------------------------------------------------------------
          Begin self-consistency iteration #    6

  Date     :  20160131, Time     :  145436.977
------------------------------------------------------------
  Evaluating new KS density using the density matrix
  Evaluating density matrix
  Time summed over all CPUs for getting density from density matrix: real work        0.975 s, elapsed        0.985 s
  Integration grid: deviation in total charge (<rho> - N_e) =  -3.552714E-14
  Pulay mixing of updated and previous charge densities.

  Evaluating partitioned Hartree potential by multipole expansion.
  | Analytical far-field extrapolation by fixed multipoles:
  | Hartree multipole sum: apparent total charge =   0.526421E-02
  Summing up the Hartree potential.
  Time summed over all CPUs for potential: real work        0.642 s, elapsed        0.647 s
  | RMS charge density error from multipole expansion :   0.111572E-01
  | Average real-space part of the electrostatic potential :      0.30542774 eV

  Integrating Hamiltonian matrix: batch-based integration.
  Time summed over all CPUs for integration: real work        0.940 s, elapsed        0.942 s

  Updating Kohn-Sham eigenvalues, eigenvectors, occupation numbers, and Fermi level.
  Solving generalized eigenproblem
  Determining occupation numbers for Kohn-Sham eigenstates.
  | Chemical potential (Fermi level) in eV                 : -.55637211E+01
  | Error in electron count due to remaining E_F inaccuracy: 0.00000000E+00
  | Maximum occupation number of highest empty state:  0.00E+00

  What follows are estimated values for band gap, HOMO, LUMO, etc.
  | They are estimated on a discrete k-point grid and not necessarily exact.
  | For converged numbers, create a DOS and/or band structure plot on a denser k-grid.

  Highest occupied state (VBM) at     -5.90190675 eV (relative to internal zero)
  | Occupation number:      2.00000000
  | K-point:       1 at    0.000000    0.000000    0.000000 (in units of recip. lattice)

  Lowest unoccupied state (CBM) at    -5.34627260 eV (relative to internal zero)
  | Occupation number:      0.00000000
  | K-point:     149 at    0.375000    0.375000    0.000000 (in units of recip. lattice)

  ESTIMATED overall HOMO-LUMO gap:      0.55563415 eV between HOMO at k-point 1 and LUMO at k-point 149
  | This appears to be an indirect band gap.
  | Smallest direct gap :      2.58467539 eV for k_point 1 at    0.375000    0.375000    0.000000 (in units of recip. lattice)
  The gap value is above 0.2 eV. Unless you are using a very sparse k-point grid,
  this system is most likely an insulator or a semiconductor.

  Total energy components:
  | Sum of eigenvalues            :        -326.32258126 Ha       -8879.68922970 eV
  | XC energy correction          :         -39.59935797 Ha       -1077.55335555 eV
  | XC potential correction       :          52.31580179 Ha        1423.58539794 eV
  | Free-atom electrostatic energy:        -262.66983578 Ha       -7147.60989787 eV
  | Hartree energy correction     :          -0.54600396 Ha         -14.85752380 eV
  | Entropy correction            :           0.00000000 Ha           0.00000000 eV
  | ---------------------------
  | Total energy                  :        -576.82197718 Ha      -15696.12460899 eV
  | Total energy, T -> 0          :        -576.82197718 Ha      -15696.12460899 eV  <-- do not rely on this value for anything but (periodic) metals
  | Electronic free energy        :        -576.82197718 Ha      -15696.12460899 eV

  Derived energy quantities:
  | Kinetic energy                :         575.45174153 Ha       15658.83859991 eV
  | Electrostatic energy          :       -1112.67436074 Ha      -30277.40985336 eV
  | Energy correction for multipole
  | error in Hartree potential    :           0.01471369 Ha           0.40037975 eV
  | Sum of eigenvalues per atom                           :       -4439.84461485 eV
  | Total energy (T->0) per atom                          :       -7848.06230450 eV  <-- do not rely on this value for anything but (periodic) metals
  | Electronic free energy per atom                       :       -7848.06230450 eV

  Self-consistency convergence accuracy:
  | Change of charge density      :  0.1515E-03
  | Change of sum of eigenvalues  : -0.5389E-03 eV
  | Change of total energy        : -0.1653E-05 eV

  End self-consistency iteration #     6       :  max(cpu_time)    wall_clock(cpu1)
  | Time for this iteration                    :        1.500 s           1.511 s
  | Charge density update                      :        0.520 s           0.522 s
  | Density mixing & preconditioning           :        0.040 s           0.042 s
  | Hartree multipole update                   :        0.000 s           0.002 s
  | Hartree multipole summation                :        0.330 s           0.328 s
  | Integration                                :        0.480 s           0.472 s
  | Solution of K.-S. eqns.                    :        0.140 s           0.144 s
  | Total energy evaluation                    :        0.000 s           0.000 s
------------------------------------------------------------

------------------------------------------------------------
          Begin self-consistency iteration #    7

  Date     :  20160131, Time     :  145438.488
------------------------------------------------------------
  Evaluating new KS density using the density matrix
  Evaluating density matrix
  Time summed over all CPUs for getting density from density matrix: real work        0.944 s, elapsed        0.951 s
  Integration grid: deviation in total charge (<rho> - N_e) =   3.552714E-14
  Pulay mixing of updated and previous charge densities.

  Evaluating partitioned Hartree potential by multipole expansion.
  | Analytical far-field extrapolation by fixed multipoles:
  | Hartree multipole sum: apparent total charge =   0.530957E-02
  Summing up the Hartree potential.
  Time summed over all CPUs for potential: real work        0.638 s, elapsed        0.642 s
  | RMS charge density error from multipole expansion :   0.111552E-01
  | Average real-space part of the electrostatic potential :      0.30544762 eV

  Integrating Hamiltonian matrix: batch-based integration.
  Time summed over all CPUs for integration: real work        0.963 s, elapsed        0.979 s

  Updating Kohn-Sham eigenvalues, eigenvectors, occupation numbers, and Fermi level.
  Solving generalized eigenproblem
  Determining occupation numbers for Kohn-Sham eigenstates.
  | Chemical potential (Fermi level) in eV                 : -.57902685E+01
  | Error in electron count due to remaining E_F inaccuracy: 0.00000000E+00
  | Maximum occupation number of highest empty state:  0.00E+00

  What follows are estimated values for band gap, HOMO, LUMO, etc.
  | They are estimated on a discrete k-point grid and not necessarily exact.
  | For converged numbers, create a DOS and/or band structure plot on a denser k-grid.

  Highest occupied state (VBM) at     -5.90181065 eV (relative to internal zero)
  | Occupation number:      2.00000000
  | K-point:       1 at    0.000000    0.000000    0.000000 (in units of recip. lattice)

  Lowest unoccupied state (CBM) at    -5.34623540 eV (relative to internal zero)
  | Occupation number:      0.00000000
  | K-point:     149 at    0.375000    0.375000    0.000000 (in units of recip. lattice)

  ESTIMATED overall HOMO-LUMO gap:      0.55557526 eV between HOMO at k-point 1 and LUMO at k-point 149
  | This appears to be an indirect band gap.
  | Smallest direct gap :      2.58465040 eV for k_point 1 at    0.375000    0.375000    0.000000 (in units of recip. lattice)
  The gap value is above 0.2 eV. Unless you are using a very sparse k-point grid,
  this system is most likely an insulator or a semiconductor.

  Total energy components:
  | Sum of eigenvalues            :        -326.32205819 Ha       -8879.67499617 eV
  | XC energy correction          :         -39.59938609 Ha       -1077.55412096 eV
  | XC potential correction       :          52.31583940 Ha        1423.58642131 eV
  | Free-atom electrostatic energy:        -262.66983578 Ha       -7147.60989787 eV
  | Hartree energy correction     :          -0.54653687 Ha         -14.87202502 eV
  | Entropy correction            :           0.00000000 Ha           0.00000000 eV
  | ---------------------------
  | Total energy                  :        -576.82197753 Ha      -15696.12461871 eV
  | Total energy, T -> 0          :        -576.82197753 Ha      -15696.12461871 eV  <-- do not rely on this value for anything but (periodic) metals
  | Electronic free energy        :        -576.82197753 Ha      -15696.12461871 eV

  Derived energy quantities:
  | Kinetic energy                :         575.45247109 Ha       15658.85845232 eV
  | Electrostatic energy          :       -1112.67506253 Ha      -30277.42895007 eV
  | Energy correction for multipole
  | error in Hartree potential    :           0.01471202 Ha           0.40033443 eV
  | Sum of eigenvalues per atom                           :       -4439.83749809 eV
  | Total energy (T->0) per atom                          :       -7848.06230936 eV  <-- do not rely on this value for anything but (periodic) metals
  | Electronic free energy per atom                       :       -7848.06230936 eV

  Self-consistency convergence accuracy:
  | Change of charge density      :  0.4695E-04
  | Change of sum of eigenvalues  :  0.1423E-01 eV
  | Change of total energy        : -0.9720E-05 eV

  End self-consistency iteration #     7       :  max(cpu_time)    wall_clock(cpu1)
  | Time for this iteration                    :        1.500 s           1.511 s
  | Charge density update                      :        0.500 s           0.504 s
  | Density mixing & preconditioning           :        0.050 s           0.042 s
  | Hartree multipole update                   :        0.010 s           0.002 s
  | Hartree multipole summation                :        0.320 s           0.326 s
  | Integration                                :        0.490 s           0.491 s
  | Solution of K.-S. eqns.                    :        0.140 s           0.145 s
  | Total energy evaluation                    :        0.000 s           0.001 s
------------------------------------------------------------

------------------------------------------------------------
          Begin self-consistency iteration #    8

  Date     :  20160131, Time     :  145439.999
------------------------------------------------------------
  Evaluating new KS density using the density matrix
  Evaluating density matrix
  Time summed over all CPUs for getting density from density matrix: real work        0.949 s, elapsed        0.957 s
  Integration grid: deviation in total charge (<rho> - N_e) =  -8.526513E-14
  Pulay mixing of updated and previous charge densities.

  Evaluating partitioned Hartree potential by multipole expansion.
  | Analytical far-field extrapolation by fixed multipoles:
  | Hartree multipole sum: apparent total charge =   0.534240E-02
  Summing up the Hartree potential.
  Time summed over all CPUs for potential: real work        0.650 s, elapsed        0.654 s
  | RMS charge density error from multipole expansion :   0.111540E-01
  | Average real-space part of the electrostatic potential :      0.30534333 eV

  Integrating Hamiltonian matrix: batch-based integration.
  Time summed over all CPUs for integration: real work        1.057 s, elapsed        1.060 s

  Updating Kohn-Sham eigenvalues, eigenvectors, occupation numbers, and Fermi level.
  Solving generalized eigenproblem
  Determining occupation numbers for Kohn-Sham eigenstates.
  | Chemical potential (Fermi level) in eV                 : -.58629969E+01
  | Error in electron count due to remaining E_F inaccuracy: -.22232882E-09
  | Maximum occupation number of highest empty state:  0.00E+00

  What follows are estimated values for band gap, HOMO, LUMO, etc.
  | They are estimated on a discrete k-point grid and not necessarily exact.
  | For converged numbers, create a DOS and/or band structure plot on a denser k-grid.

  Highest occupied state (VBM) at     -5.90188890 eV (relative to internal zero)
  | Occupation number:      1.99999996
  | K-point:       1 at    0.000000    0.000000    0.000000 (in units of recip. lattice)

  Lowest unoccupied state (CBM) at    -5.34625032 eV (relative to internal zero)
  | Occupation number:      0.00000000
  | K-point:     149 at    0.375000    0.375000    0.000000 (in units of recip. lattice)

  ESTIMATED overall HOMO-LUMO gap:      0.55563858 eV between HOMO at k-point 1 and LUMO at k-point 149
  | This appears to be an indirect band gap.
  | Smallest direct gap :      2.58469716 eV for k_point 1 at    0.375000    0.375000    0.000000 (in units of recip. lattice)
  The gap value is above 0.2 eV. Unless you are using a very sparse k-point grid,
  this system is most likely an insulator or a semiconductor.

  Total energy components:
  | Sum of eigenvalues            :        -326.32211088 Ha       -8879.67643005 eV
  | XC energy correction          :         -39.59937020 Ha       -1077.55368859 eV
  | XC potential correction       :          52.31581867 Ha        1423.58585726 eV
  | Free-atom electrostatic energy:        -262.66983578 Ha       -7147.60989787 eV
  | Hartree energy correction     :          -0.54647933 Ha         -14.87045925 eV
  | Entropy correction            :           0.00000000 Ha           0.00000000 eV
  | ---------------------------
  | Total energy                  :        -576.82197753 Ha      -15696.12461849 eV
  | Total energy, T -> 0          :        -576.82197753 Ha      -15696.12461849 eV  <-- do not rely on this value for anything but (periodic) metals
  | Electronic free energy        :        -576.82197753 Ha      -15696.12461849 eV

  Derived energy quantities:
  | Kinetic energy                :         575.45252907 Ha       15658.86002990 eV
  | Electrostatic energy          :       -1112.67513639 Ha      -30277.43095980 eV
  | Energy correction for multipole
  | error in Hartree potential    :           0.01470997 Ha           0.40027870 eV
  | Sum of eigenvalues per atom                           :       -4439.83821502 eV
  | Total energy (T->0) per atom                          :       -7848.06230925 eV  <-- do not rely on this value for anything but (periodic) metals
  | Electronic free energy per atom                       :       -7848.06230925 eV

  Self-consistency convergence accuracy:
  | Change of charge density      :  0.1633E-04
  | Change of sum of eigenvalues  : -0.1434E-02 eV
  | Change of total energy        :  0.2195E-06 eV

  End self-consistency iteration #     8       :  max(cpu_time)    wall_clock(cpu1)
  | Time for this iteration                    :        1.500 s           1.557 s
  | Charge density update                      :        0.510 s           0.508 s
  | Density mixing & preconditioning           :        0.040 s           0.041 s
  | Hartree multipole update                   :        0.010 s           0.002 s
  | Hartree multipole summation                :        0.320 s           0.332 s
  | Integration                                :        0.480 s           0.531 s
  | Solution of K.-S. eqns.                    :        0.150 s           0.142 s
  | Total energy evaluation                    :        0.000 s           0.001 s
------------------------------------------------------------

------------------------------------------------------------
          Begin self-consistency iteration #    9

  Date     :  20160131, Time     :  145441.556
------------------------------------------------------------
  Evaluating new KS density using the density matrix
  Evaluating density matrix
  Time summed over all CPUs for getting density from density matrix: real work        0.947 s, elapsed        0.951 s
  Integration grid: deviation in total charge (<rho> - N_e) =  -2.222968E-10
  Pulay mixing of updated and previous charge densities.

  Evaluating partitioned Hartree potential by multipole expansion.
  | Analytical far-field extrapolation by fixed multipoles:
  | Hartree multipole sum: apparent total charge =   0.534425E-02
  Summing up the Hartree potential.
  Time summed over all CPUs for potential: real work        0.651 s, elapsed        0.663 s
  | RMS charge density error from multipole expansion :   0.111540E-01
  | Average real-space part of the electrostatic potential :      0.30533841 eV

  Integrating Hamiltonian matrix: batch-based integration.
  Time summed over all CPUs for integration: real work        0.947 s, elapsed        0.951 s

  Updating Kohn-Sham eigenvalues, eigenvectors, occupation numbers, and Fermi level.
  Solving generalized eigenproblem
  Determining occupation numbers for Kohn-Sham eigenstates.
  | Chemical potential (Fermi level) in eV                 : -.58658200E+01
  | Error in electron count due to remaining E_F inaccuracy: -.19769786E-08
  | Maximum occupation number of highest empty state:  0.00E+00

  What follows are estimated values for band gap, HOMO, LUMO, etc.
  | They are estimated on a discrete k-point grid and not necessarily exact.
  | For converged numbers, create a DOS and/or band structure plot on a denser k-grid.

  Highest occupied state (VBM) at     -5.90189137 eV (relative to internal zero)
  | Occupation number:      1.99999966
  | K-point:       1 at    0.000000    0.000000    0.000000 (in units of recip. lattice)

  Lowest unoccupied state (CBM) at    -5.34625039 eV (relative to internal zero)
  | Occupation number:      0.00000000
  | K-point:     149 at    0.375000    0.375000    0.000000 (in units of recip. lattice)

  ESTIMATED overall HOMO-LUMO gap:      0.55564098 eV between HOMO at k-point 1 and LUMO at k-point 149
  | This appears to be an indirect band gap.
  | Smallest direct gap :      2.58469877 eV for k_point 1 at    0.375000    0.375000    0.000000 (in units of recip. lattice)
  The gap value is above 0.2 eV. Unless you are using a very sparse k-point grid,
  this system is most likely an insulator or a semiconductor.

  Total energy components:
  | Sum of eigenvalues            :        -326.32211552 Ha       -8879.67655638 eV
  | XC energy correction          :         -39.59936911 Ha       -1077.55365873 eV
  | XC potential correction       :          52.31581723 Ha        1423.58581811 eV
  | Free-atom electrostatic energy:        -262.66983578 Ha       -7147.60989787 eV
  | Hartree energy correction     :          -0.54647435 Ha         -14.87032359 eV
  | Entropy correction            :           0.00000000 Ha           0.00000000 eV
  | ---------------------------
  | Total energy                  :        -576.82197752 Ha      -15696.12461846 eV
  | Total energy, T -> 0          :        -576.82197752 Ha      -15696.12461846 eV  <-- do not rely on this value for anything but (periodic) metals
  | Electronic free energy        :        -576.82197752 Ha      -15696.12461846 eV

  Derived energy quantities:
  | Kinetic energy                :         575.45252423 Ha       15658.85989840 eV
  | Electrostatic energy          :       -1112.67513265 Ha      -30277.43085813 eV
  | Energy correction for multipole
  | error in Hartree potential    :           0.01470993 Ha           0.40027761 eV
  | Sum of eigenvalues per atom                           :       -4439.83827819 eV
  | Total energy (T->0) per atom                          :       -7848.06230923 eV  <-- do not rely on this value for anything but (periodic) metals
  | Electronic free energy per atom                       :       -7848.06230923 eV

  Self-consistency convergence accuracy:
  | Change of charge density      :  0.5303E-06
  | Change of sum of eigenvalues  : -0.1263E-03 eV
  | Change of total energy        :  0.3151E-07 eV

  Preliminary charge convergence reached. Turning off preconditioner.

  Electronic self-consistency reached - switching on the force computation.

  Electronic self-consistency reached - switching on the analytical stress tensor computation.

  End self-consistency iteration #     9       :  max(cpu_time)    wall_clock(cpu1)
  | Time for this iteration                    :        1.490 s           1.505 s
  | Charge density & force component update    :        0.500 s           0.505 s
  | Density mixing                             :        0.040 s           0.042 s
  | Hartree multipole update                   :        0.010 s           0.001 s
  | Hartree multipole summation                :        0.340 s           0.337 s
  | Integration                                :        0.480 s           0.476 s
  | Solution of K.-S. eqns.                    :        0.140 s           0.143 s
  | Total energy evaluation                    :        0.000 s           0.001 s
------------------------------------------------------------

------------------------------------------------------------
          Begin self-consistency iteration #   10

  Date     :  20160131, Time     :  145443.061
------------------------------------------------------------
  Evaluating new KS density using the density matrix
  Evaluating density matrix
  Time summed over all CPUs for getting density from density matrix: real work        0.967 s, elapsed        0.986 s
  Integration grid: deviation in total charge (<rho> - N_e) =  -1.976971E-09
  Pulay mixing of updated and previous charge densities.

  Evaluating partitioned Hartree potential by multipole expansion.
  | Analytical far-field extrapolation by fixed multipoles:
  | Hartree multipole sum: apparent total charge =   0.534425E-02
  Summing up the Hartree potential.
  Time summed over all CPUs for potential: real work        2.835 s, elapsed        2.835 s
  | RMS charge density error from multipole expansion :   0.111540E-01
  | Average real-space part of the electrostatic potential :      0.30533776 eV

  Integrating Hamiltonian matrix: batch-based integration.
  Time summed over all CPUs for integration: real work        0.957 s, elapsed        0.967 s

  Updating Kohn-Sham eigenvalues, eigenvectors, occupation numbers, and Fermi level.
  Solving generalized eigenproblem
  Determining occupation numbers for Kohn-Sham eigenstates.
  | Chemical potential (Fermi level) in eV                 : -.58665012E+01
[...]
  | Solution of K.-S. eqns.                    :        0.150 s           0.147 s
  | Total energy evaluation                    :        0.000 s           0.000 s
------------------------------------------------------------

------------------------------------------------------------
          Begin self-consistency iteration #    7

  Date     :  20160131, Time     :  145632.839
------------------------------------------------------------
  Evaluating new KS density using the density matrix
  Evaluating density matrix
  Time summed over all CPUs for getting density from density matrix: real work        0.959 s, elapsed        0.967 s
  Evaluating the Pulay forces using the density matrix.
  Evaluating density matrix
  Evaluating density matrix
  Integration grid: deviation in total charge (<rho> - N_e) =   4.263256E-14
  Pulay mixing of updated and previous charge densities.

  Evaluating partitioned Hartree potential by multipole expansion.
  | Analytical far-field extrapolation by fixed multipoles:
  | Hartree multipole sum: apparent total charge =   0.524739E-02
  Summing up the Hartree potential.
  Time summed over all CPUs for potential: real work        2.746 s, elapsed        2.746 s
  | RMS charge density error from multipole expansion :   0.109589E-01
  | Average real-space part of the electrostatic potential :      0.29797208 eV

  Integrating Hamiltonian matrix: batch-based integration.
  Time summed over all CPUs for integration: real work        0.946 s, elapsed        0.947 s

  Updating Kohn-Sham eigenvalues, eigenvectors, occupation numbers, and Fermi level.
  Solving generalized eigenproblem
  Determining occupation numbers for Kohn-Sham eigenstates.
  | Chemical potential (Fermi level) in eV                 : -.58206218E+01
  | Error in electron count due to remaining E_F inaccuracy: 0.00000000E+00
  | Maximum occupation number of highest empty state:  0.00E+00

  What follows are estimated values for band gap, HOMO, LUMO, etc.
  | They are estimated on a discrete k-point grid and not necessarily exact.
  | For converged numbers, create a DOS and/or band structure plot on a denser k-grid.

  Highest occupied state (VBM) at     -5.88625358 eV (relative to internal zero)
  | Occupation number:      2.00000000
  | K-point:       1 at    0.000000    0.000000    0.000000 (in units of recip. lattice)

  Lowest unoccupied state (CBM) at    -5.31666896 eV (relative to internal zero)
  | Occupation number:      0.00000000
  | K-point:     149 at    0.375000    0.375000    0.000000 (in units of recip. lattice)

  ESTIMATED overall HOMO-LUMO gap:      0.56958463 eV between HOMO at k-point 1 and LUMO at k-point 149
  | This appears to be an indirect band gap.
  | Smallest direct gap :      2.57462720 eV for k_point 1 at    0.375000    0.375000    0.000000 (in units of recip. lattice)
  The gap value is above 0.2 eV. Unless you are using a very sparse k-point grid,
  this system is most likely an insulator or a semiconductor.

  Total energy components:
  | Sum of eigenvalues            :        -326.31260110 Ha       -8879.41765565 eV
  | XC energy correction          :         -39.59260115 Ha       -1077.36949336 eV
  | XC potential correction       :          52.30691377 Ha        1423.34354259 eV
  | Free-atom electrostatic energy:        -262.69577314 Ha       -7148.31568934 eV
  | Hartree energy correction     :          -0.52795157 Ha         -14.36629307 eV
  | Entropy correction            :           0.00000000 Ha           0.00000000 eV
  | ---------------------------
  | Total energy                  :        -576.82201318 Ha      -15696.12558883 eV
  | Total energy, T -> 0          :        -576.82201318 Ha      -15696.12558883 eV  <-- do not rely on this value for anything but (periodic) metals
  | Electronic free energy        :        -576.82201318 Ha      -15696.12558883 eV

  Derived energy quantities:
  | Kinetic energy                :         575.42470767 Ha       15658.10297119 eV
  | Electrostatic energy          :       -1112.65411970 Ha      -30276.85906666 eV
  | Energy correction for multipole
  | error in Hartree potential    :           0.01440535 Ha           0.39198965 eV
  | Sum of eigenvalues per atom                           :       -4439.70882782 eV
  | Total energy (T->0) per atom                          :       -7848.06279442 eV  <-- do not rely on this value for anything but (periodic) metals
  | Electronic free energy per atom                       :       -7848.06279442 eV

  atomic forces [eV/Ang]:
  -----------------------
  atom #    1
   Hellmann-Feynman              :  0.158849E-01  0.158853E-01  0.158853E-01
   Ionic forces                  :  0.000000E+00  0.000000E+00  0.000000E+00
   Multipole                     : -0.756347E-03 -0.756102E-03 -0.756102E-03
   Pulay + GGA                   : -0.193076E-01 -0.193081E-01 -0.193081E-01
   ----------------------------------------------------------------
   Total forces(   1)            : -0.417909E-02 -0.417891E-02 -0.417891E-02
  atom #    2
   Hellmann-Feynman              : -0.158849E-01 -0.158853E-01 -0.158853E-01
   Ionic forces                  :  0.000000E+00  0.000000E+00  0.000000E+00
   Multipole                     :  0.756347E-03  0.756102E-03  0.756102E-03
   Pulay + GGA                   :  0.193076E-01  0.193081E-01  0.193081E-01
   ----------------------------------------------------------------
   Total forces(   2)            :  0.417909E-02  0.417891E-02  0.417891E-02


  Analytical stress tensor components [eV]         xx                  yy                  zz                  xy                  xz                  yz
  -----------------------------------------------------------------------------------------------------------------------------------------------------------
    Nuclear Hellmann-Feynman      :    -0.1842014325E+02   -0.1842160960E+02   -0.1842160959E+02   -0.5334688036E-02   -0.5334688281E-02   -0.5339039792E-02
    Multipole Hellmann-Feynman    :    -0.4069322862E+02   -0.4069324935E+02   -0.4069324935E+02   -0.1820755852E-01   -0.1820755756E-01   -0.1820720002E-01
    On-site Multipole corrections :    -0.2654198035E+00   -0.2654198016E+00   -0.2654198016E+00    0.1758417564E-05    0.1758431859E-05    0.1758395510E-05
    Strain deriv. of the orbitals :     0.5909424703E+02    0.5909573438E+02    0.5909573438E+02    0.1267144796E-01    0.1267144817E-01    0.1267564863E-01
    On-site kinetic E corrections :     0.2937833795E+00    0.2937833701E+00    0.2937833701E+00    0.3384718951E-05    0.3384757572E-05    0.3384804411E-05
  -----------------------------------------------------------------------------------------------------------------------------------------------------------
  Sum of all contributions        :     0.9238738162E-02    0.9239003397E-02    0.9239007359E-02   -0.1086565546E-01   -0.1086565449E-01   -0.1086544798E-01

  +-------------------------------------------------------------------+
  |              Analytical stress tensor - Symmetrized               |
  |                  Cartesian components [eV/A**3]                   |
  +-------------------------------------------------------------------+
  |                x                y                z                |
  |                                                                   |
  |  x         0.00023240      -0.00027332      -0.00027332           |
  |  y        -0.00027332       0.00023241      -0.00027332           |
  |  z        -0.00027332      -0.00027332       0.00023241           |
  |                                                                   |
  |  Pressure:      -0.00023240   [eV/A**3]                           |
  |                                                                   |
  +-------------------------------------------------------------------+

 * Warning: Stress tensor is anisotropic. Be aware that pressure is an isotropic quantity.


  Self-consistency convergence accuracy:
  | Change of charge density      :  0.1109E-06
  | Change of sum of eigenvalues  : -0.4781E-04 eV
  | Change of total energy        :  0.9875E-08 eV
  | Change of forces              :  0.1271E-04 eV/A

  Writing Kohn-Sham eigenvalues.
  K-point:       1 at    0.000000    0.000000    0.000000 (in units of recip. lattice)

  State    Occupation    Eigenvalue [Ha]    Eigenvalue [eV]
      1       2.00000         -65.169435        -1773.35055
      2       2.00000         -65.169435        -1773.35055
      3       2.00000          -5.071873         -138.01270
      4       2.00000          -5.071552         -138.00396
      5       2.00000          -3.510823          -95.53436
      6       2.00000          -3.510823          -95.53436
      7       2.00000          -3.510821          -95.53431
      8       2.00000          -3.510171          -95.51662
      9       2.00000          -3.510171          -95.51662
     10       2.00000          -3.510165          -95.51646
     11       2.00000          -0.656126          -17.85411
     12       2.00000          -0.216368           -5.88768
     13       2.00000          -0.216368           -5.88768
     14       2.00000          -0.216316           -5.88625
     15       0.00000          -0.121700           -3.31163
     16       0.00000          -0.121700           -3.31163
     17       0.00000          -0.121339           -3.30179
     18       0.00000          -0.086890           -2.36438
     19       0.00000           0.073603            2.00285
     20       0.00000           0.073603            2.00285

  What follows are estimated values for band gap, HOMO, LUMO, etc.
  | They are estimated on a discrete k-point grid and not necessarily exact.
  | For converged numbers, create a DOS and/or band structure plot on a denser k-grid.

  Highest occupied state (VBM) at     -5.88625358 eV (relative to internal zero)
  | Occupation number:      2.00000000
  | K-point:       1 at    0.000000    0.000000    0.000000 (in units of recip. lattice)

  Lowest unoccupied state (CBM) at    -5.31666896 eV (relative to internal zero)
  | Occupation number:      0.00000000
  | K-point:     149 at    0.375000    0.375000    0.000000 (in units of recip. lattice)

  ESTIMATED overall HOMO-LUMO gap:      0.56958463 eV between HOMO at k-point 1 and LUMO at k-point 149
  | This appears to be an indirect band gap.
  | Smallest direct gap :      2.57462720 eV for k_point 1 at    0.375000    0.375000    0.000000 (in units of recip. lattice)
  The gap value is above 0.2 eV. Unless you are using a very sparse k-point grid,
  this system is most likely an insulator or a semiconductor.

  Self-consistency cycle converged.

  End self-consistency iteration #     7       :  max(cpu_time)    wall_clock(cpu1)
  | Time for this iteration                    :       17.900 s          18.192 s
  | Charge density & force component update    :       15.920 s          16.177 s
  | Density mixing                             :        0.000 s           0.001 s
  | Hartree multipole update                   :        0.000 s           0.002 s
  | Hartree multipole summation                :        1.370 s           1.383 s
  | Integration                                :        0.470 s           0.474 s
  | Solution of K.-S. eqns.                    :        0.140 s           0.146 s
  | Total energy evaluation                    :        0.000 s           0.009 s
------------------------------------------------------------

  Energy and forces in a compact form:
  | Total energy uncorrected      :         -0.156961255888318E+05 eV
  | Total energy corrected        :         -0.156961255888318E+05 eV  <-- do not rely on this value for anything but (periodic) metals
  | Electronic free energy        :         -0.156961255888318E+05 eV
  Total atomic forces (unitary forces were cleaned, then relaxation constraints were applied) [eV/Ang]:
  |   1          0.000000000000000E+00          0.000000000000000E+00          0.000000000000000E+00
  |   2          0.000000000000000E+00          0.000000000000000E+00          0.000000000000000E+00

  ------------------------------------ 
  Start decomposition of the XC Energy 
  ------------------------------------ 
  Hartree-Fock part   :          0.000000000 Ha              0.000000000 eV
  ------------------------------------ 
  X Energy            :        -37.448134529 Ha          -1019.015587469 eV
  C Energy GGA        :         -2.144466625 Ha            -58.353905894 eV
  Total XC Energy     :        -39.592601154 Ha          -1077.369493363 eV
  LDA X and C from self-consistent density 
  X Energy LDA        :        -37.448134529 Ha          -1019.015587469 eV
  C Energy LDA        :         -2.144466625 Ha            -58.353905894 eV
  ------------------------------------ 
  End decomposition of the XC Energy 
  ------------------------------------ 
  Relaxation / MD: End force evaluation.       :  max(cpu_time)    wall_clock(cpu1)
  | Time for this force evaluation             :       32.300 s          32.725 s

------------------------------------------------------------
  Geometry optimization: Attempting to predict improved coordinates.

  +-------------------------------------------------------------------+
  | Generalized derivatives on lattice vectors [eV/A]                 |
  +-------------------------------------------------------------------+
  |lattice_vector       0.00170446       0.00170447      -0.00571579  |
  |lattice_vector       0.00170446      -0.00571579       0.00170447  |
  |lattice_vector      -0.00571578       0.00170455       0.00170455  |
  +-------------------------------------------------------------------+
  | Forces on lattice vectors cleaned from atomic contributions [eV/A]|
  +-------------------------------------------------------------------+
  |lattice_vector      -0.00170446      -0.00170447       0.00571579  |
  |lattice_vector      -0.00170446       0.00571579      -0.00170447  |
  |lattice_vector       0.00571578      -0.00170455      -0.00170455  |
  +-------------------------------------------------------------------+
  || Forces on lattice vectors || =   0.571579E-02 eV/A.
  Net remaining forces (excluding translations, rotations) in present geometry:
  Maximum force component is  0.571579E-02 eV/A.
  Present geometry is converged.

------------------------------------------------------------
  Final atomic structure:
                         x [A]             y [A]             z [A]
  lattice_vector         2.70826839        2.70826871       -0.00112951
  lattice_vector         2.70826839       -0.00112951        2.70826871
  lattice_vector        -0.00112919        2.70826883        2.70826883

            atom         0.00000000        0.00000000        0.00000000  Si
            atom         1.35385190        1.35385201        1.35385201  Si

  Fractional coordinates:
                         L1                L2                L3
       atom_frac         0.00000000        0.00000000        0.00000000  Si
       atom_frac         0.25000000        0.25000000        0.25000000  Si
------------------------------------------------------------

------------------------------------------------------------------------------
  Final output of selected total energy values:

  The following output summarizes some interesting total energy values
  at the end of a run (AFTER all relaxation, molecular dynamics, etc.).

  | Total energy of the DFT / Hartree-Fock s.c.f. calculation      :         -15696.125588832 eV
  | Final zero-broadening corrected energy (caution - metals only) :         -15696.125588832 eV
  | For reference only, the value of 1 Hartree used in FHI-aims is :             27.211384500 eV

  Before relying on these values, please be sure to understand exactly which
  total energy value is referred to by a given number. Different objects may
  all carry the same name 'total energy'. Definitions:

  Total energy of the DFT / Hartree-Fock s.c.f. calculation:
  | Note that this energy does not include ANY quantities calculated after the
  | s.c.f. cycle, in particular not ANY RPA, MP2, etc. many-body perturbation terms.

  Final zero-broadening corrected energy:
  | For metallic systems only, a broadening of the occupation numbers at the Fermi
  | level can be extrapolated back to zero broadening by an electron-gas inspired
  | formula. For all systems that are not real metals, this value can be
  | meaningless and should be avoided.

------------------------------------------------------------------------------
  Methods described in the following list of references were used in this FHI-aims run.
  If you publish the results, please make sure to cite these reference if they apply.
  FHI-aims is an academic code, and for our developers (often, Ph.D. students
  and postdocs), scientific credit in the community is essential.
  Thank you for helping us!

  For any use of FHI-aims, please cite:

    Volker Blum, Ralf Gehrke, Felix Hanke, Paula Havu, Ville Havu,
    Xinguo Ren, Karsten Reuter, and Matthias Scheffler
    'Ab initio molecular simulations with numeric atom-centered orbitals'
    Computer Physics Communications 180, 2175-2196 (2009)
    http://dx.doi.org/10.1016/j.cpc.2009.06.022


  For the analytical stress tensor used in your run, please cite:

    Franz Knuth, Christian Carbogno, Viktor Atalla, Volker Blum, Matthias Scheffler
    'All-electron formalism for total energy strain derivatives and
    stress tensor components for numeric atom-centered orbitals'
    Computer Physics Communications 190, 33-50 (2015).
    http://dx.doi.org/10.1016/j.cpc.2015.01.003


  For the real-space grid partitioning and parallelization used in this calculation, please cite:

    Ville Havu, Volker Blum, Paula Havu, and Matthias Scheffler,
    'Efficient O(N) integration for all-electron electronic structure calculation'
    'using numerically tabulated basis functions'
    Journal of Computational Physics 228, 8367-8379 (2009).
    http://dx.doi.org/10.1016/j.jcp.2009.08.008

  Of course, there are many other important community references, e.g., those cited in the
  above references. Our list is limited to references that describe implementations in the
  FHI-aims code. The reason is purely practical (length of this list) - please credit others as well.

------------------------------------------------------------
          Leaving FHI-aims.
          Date     :  20160131, Time     :  145651.041

          Computational steps:
          | Number of self-consistency cycles          :           39
          | Number of relaxation steps                 :            4

          Detailed time accounting                     :  max(cpu_time)    wall_clock(cpu1)
          | Total time                                 :      141.990 s         143.855 s
          | Preparation time                           :        0.200 s           0.206 s
          | Grid partitioning                          :        0.250 s           0.251 s
          | Preloading free-atom quantities on grid    :        1.320 s           1.357 s
          | Free-atom superposition energy             :        0.250 s           0.258 s
          | Total time for integrations                :       22.310 s          22.463 s
          | Total time for solution of K.-S. equations :        6.270 s           6.369 s
          | Total time for EV reorthonormalization     :        0.260 s           0.269 s
          | Total time for density & force components  :       85.080 s          85.993 s
          | Total time for mixing & preconditioning    :        1.070 s           1.068 s
          | Total time for Hartree multipole update    :        0.230 s           0.078 s
          | Total time for Hartree multipole sum       :       24.460 s          24.568 s
          | Total time for total energy evaluation     :        0.030 s           0.027 s

          Have a nice day.
------------------------------------------------------------
