 vasp.6.1.1 19Jun20 (build Oct 26 2020 17:25:13) gamma-only                     
  
 executed on             LinuxIFC date 2021.02.19  02:42:04
 running on   48 total cores
 distrk:  each k-point on   48 cores,    1 groups
 distr:  one band on NCORE=  12 cores,    4 groups


--------------------------------------------------------------------------------------------------------


 INCAR:
 POTCAR:    PAW_PBE Cd 06Sep2000                  
 POTCAR:    PAW_PBE Te 08Apr2002                  
 POTCAR:    PAW_PBE Cd 06Sep2000                  
   VRHFIN =Cd : s2 d10                                                                              
   LEXCH  = PE                                                                                      
   EATOM  =  1293.1815 eV,   95.0462 Ry                                                             
                                                                                                    
   TITEL  = PAW_PBE Cd 06Sep2000                                                                    
   LULTRA =        F    use ultrasoft PP ?                                                          
   IUNSCR =        1    unscreen: 0-lin 1-nonlin 2-no                                               
   RPACOR =    2.000    partial core radius                                                         
   POMASS =  112.411; ZVAL   =   12.000    mass and valenz                                          
   RCORE  =    2.300    outmost cutoff radius                                                       
   RWIGS  =    2.980; RWIGS  =    1.577    wigner-seitz radius (au A)                               
   ENMAX  =  274.336; ENMIN  =  205.752 eV                                                          
   RCLOC  =    2.054    cutoff for local pot                                                        
   LCOR   =        T    correct aug charges                                                         
   LPAW   =        T    paw PP                                                                      
   EAUG   =  456.106                                                                                
   DEXC   =    0.000                                                                                
   RMAX   =    2.358    core radius for proj-oper                                                   
   RAUG   =    1.300    factor for augmentation sphere                                              
   RDEP   =    2.450    radius for radial grids                                                     
   RDEPT  =    1.955    core radius for aug-charge                                                  
                                                                                                    
   Atomic configuration                                                                             
   12 entries                                                                                       
     n  l   j            E        occ.                                                              
     1  0  0.50    -26519.7817   2.0000                                                             
     2  0  0.50     -3936.9612   2.0000                                                             
     2  1  1.50     -3532.2230   6.0000                                                             
     3  0  0.50      -733.7908   2.0000                                                             
     3  1  1.50      -601.0792   6.0000                                                             
     3  2  2.50      -393.5307  10.0000                                                             
     4  0  0.50      -105.8977   2.0000                                                             
     4  1  1.50       -66.9488   6.0000                                                             
     4  2  2.50       -11.7331  10.0000                                                             
     5  0  0.50        -5.6592   2.0000                                                             
     5  1  0.50        -1.3606   0.0000                                                             
     4  3  2.50        -1.3606   0.0000                                                             
   Description                                                                                      
     l       E           TYP  RCUT    TYP  RCUT                                                     
     2    -11.7331479     23  2.300                                                                 
     2    -13.0937305     23  2.300                                                                 
     0     -5.6591502     23  2.300                                                                 
     0     -1.5561433     23  2.300                                                                 
     1     -2.7211652     23  2.300                                                                 
     1      8.3548275     23  2.300                                                                 
  local pseudopotential read in
  partial core-charges read in
  partial kinetic energy density read in
  atomic valenz-charges read in
  non local Contribution for L=           2  read in
    real space projection operators read in
  non local Contribution for L=           2  read in
    real space projection operators read in
  non local Contribution for L=           0  read in
    real space projection operators read in
  non local Contribution for L=           0  read in
    real space projection operators read in
  non local Contribution for L=           1  read in
    real space projection operators read in
  non local Contribution for L=           1  read in
    real space projection operators read in
    PAW grid and wavefunctions read in
 
   number of l-projection  operators is LMAX  =           6
   number of lm-projection operators is LMMAX =          18
 
 POTCAR:    PAW_PBE Te 08Apr2002                  
   VRHFIN =Te: s2p4                                                                                 
   LEXCH  = PE                                                                                      
   EATOM  =   223.2721 eV,   16.4100 Ry                                                             
                                                                                                    
   TITEL  = PAW_PBE Te 08Apr2002                                                                    
   LULTRA =        F    use ultrasoft PP ?                                                          
   IUNSCR =        1    unscreen: 0-lin 1-nonlin 2-no                                               
   RPACOR =    2.200    partial core radius                                                         
   POMASS =  127.600; ZVAL   =    6.000    mass and valenz                                          
   RCORE  =    2.300    outmost cutoff radius                                                       
   RWIGS  =    2.900; RWIGS  =    1.535    wigner-seitz radius (au A)                               
   ENMAX  =  174.982; ENMIN  =  131.236 eV                                                          
   ICORE  =        3    local potential                                                             
   LCOR   =        T    correct aug charges                                                         
   LPAW   =        T    paw PP                                                                      
   EAUG   =  368.792                                                                                
   DEXC   =    0.000                                                                                
   RMAX   =    2.345    core radius for proj-oper                                                   
   RAUG   =    1.300    factor for augmentation sphere                                              
   RDEP   =    2.397    radius for radial grids                                                     
   RDEPT  =    2.174    core radius for aug-charge                                                  
                                                                                                    
   Atomic configuration                                                                             
   13 entries                                                                                       
     n  l   j            E        occ.                                                              
     1  0  0.50    -31621.2075   2.0000                                                             
     2  0  0.50     -4848.7941   2.0000                                                             
     2  1  1.50     -4352.1960   6.0000                                                             
     3  0  0.50      -964.9612   2.0000                                                             
     3  1  1.50      -803.6179   6.0000                                                             
     3  2  2.50      -559.8710  10.0000                                                             
     4  0  0.50      -164.3522   2.0000                                                             
     4  1  1.50      -114.3756   6.0000                                                             
     4  2  2.50       -41.6483  10.0000                                                             
     5  0  0.50       -15.1072   2.0000                                                             
     5  1  0.50        -5.9526   4.0000                                                             
     5  2  1.50        -5.4423   0.0000                                                             
     4  3  2.50        -5.4423   0.0000                                                             
   Description                                                                                      
     l       E           TYP  RCUT    TYP  RCUT                                                     
     0    -15.1072389     23  2.300                                                                 
     0    -16.4678215     23  2.300                                                                 
     1     -5.9526306     23  2.300                                                                 
     1     -2.4873968     23  2.300                                                                 
     2     -5.4423304     23  2.300                                                                 
     3     -1.3605826     23  2.300                                                                 
  local pseudopotential read in
  partial core-charges read in
  partial kinetic energy density read in
  atomic valenz-charges read in
  non local Contribution for L=           0  read in
    real space projection operators read in
  non local Contribution for L=           0  read in
    real space projection operators read in
  non local Contribution for L=           1  read in
    real space projection operators read in
  non local Contribution for L=           1  read in
    real space projection operators read in
  non local Contribution for L=           2  read in
    real space projection operators read in
    PAW grid and wavefunctions read in
 
   number of l-projection  operators is LMAX  =           5
   number of lm-projection operators is LMMAX =          13
 
 Optimization of the real space projectors (new method)

 maximal supplied QI-value         = 16.25
 optimisation between [QCUT,QGAM] = [ 10.73, 21.61] = [ 32.22,130.83] Ry 
 Optimized for a Real-space Cutoff    1.34 Angstroem

   l    n(q)    QCUT    max X(q) W(low)/X(q) W(high)/X(q)  e(spline) 
   2      8    10.726    73.106    0.62E-03    0.58E-03    0.13E-06
   2      8    10.726    71.731    0.63E-03    0.59E-03    0.13E-06
   0      9    10.726   146.509    0.37E-03    0.31E-03    0.93E-07
   0      9    10.726    95.017    0.35E-03    0.30E-03    0.90E-07
   1      8    10.726    36.165    0.40E-03    0.62E-04    0.20E-06
   1      8    10.726    31.530    0.37E-03    0.46E-04    0.19E-06
 Optimization of the real space projectors (new method)

 maximal supplied QI-value         = 16.25
 optimisation between [QCUT,QGAM] = [ 10.73, 21.61] = [ 32.22,130.83] Ry 
 Optimized for a Real-space Cutoff    1.26 Angstroem

   l    n(q)    QCUT    max X(q) W(low)/X(q) W(high)/X(q)  e(spline) 
   0      8    10.726   224.858    0.42E-03    0.29E-03    0.13E-06
   0      8    10.726   205.313    0.42E-03    0.29E-03    0.14E-06
   1      8    10.726   119.695    0.28E-03    0.65E-03    0.18E-06
   1      8    10.726    84.282    0.28E-03    0.64E-03    0.18E-06
   2      7    10.726     5.599    0.26E-03    0.18E-03    0.37E-07
  PAW_PBE Cd 06Sep2000                  :
 energy of atom  1       EATOM=-1293.1815
 kinetic energy error for atom=    0.0084 (will be added to EATOM!!)
  PAW_PBE Te 08Apr2002                  :
 energy of atom  2       EATOM= -223.2721
 kinetic energy error for atom=    0.0008 (will be added to EATOM!!)
 
 
 POSCAR: 20.0%_BDM_Distortion_vac_1_Cd[0. 0. 0.]_
  positions in direct lattice
  velocities in cartesian coordinates
 exchange correlation table for  LEXCH =        8
   RHO(1)=    0.500       N(1)  =     2000
   RHO(2)=  100.500       N(2)  =     4000
 


--------------------------------------------------------------------------------------------------------


 ion  position               nearest neighbor table
   1  0.002  0.998  0.500-  43 2.84  32 2.84  62 2.84  53 2.84
   2  0.002  0.498  0.000-  40 2.84  35 2.84  61 2.85  54 2.85
   3  0.001  0.498  0.501-  41 2.84  34 2.84  60 2.84  55 2.84
   4  0.502  0.997  1.000-  46 2.84  59 2.84  37 2.84  48 2.84
   5  0.501  0.997  0.500-  58 2.84  47 2.84  36 2.84  49 2.84
   6  0.501  0.497  0.999-  57 2.84  39 2.84  44 2.85  50 2.85
   7  0.502  0.498  0.500-  38 2.83  56 2.83  45 2.83  51 2.84
   8  0.995  0.244  0.246-  52 2.78  60 2.85  32 2.87  40 2.87
   9  0.010  0.243  0.755-  33 2.79  41 2.85  61 2.88  53 2.88
  10  0.006  0.752  0.246-  42 2.79  34 2.86  54 2.87  62 2.87
  11  0.993  0.754  0.755-  63 2.78  55 2.86  43 2.88  35 2.88
  12  0.499  0.246  0.249-  48 2.82  44 2.84  56 2.84  36 2.84
  13  0.502  0.246  0.751-  49 2.84  37 2.84  45 2.84  57 2.84
  14  0.502  0.750  0.248-  46 2.82  50 2.84  58 2.84  38 2.84
  15  0.502  0.750  0.751-  47 2.83  59 2.84  39 2.84  51 2.84
  16  0.246  0.994  0.246-  42 2.80  32 2.85  48 2.86  58 2.87
  17  0.244  0.004  0.754-  33 2.80  43 2.85  49 2.86  59 2.87
  18  0.251  0.498  0.248-  40 2.82  50 2.84  34 2.84  56 2.85
  19  0.252  0.498  0.751-  41 2.83  35 2.84  57 2.84  51 2.84
  20  0.757  0.003  0.246-  52 2.79  62 2.85  46 2.86  36 2.86
  21  0.759  0.994  0.754-  63 2.80  53 2.85  47 2.86  37 2.87
  22  0.751  0.497  0.249-  54 2.82  44 2.84  60 2.84  38 2.85
  23  0.752  0.498  0.751-  55 2.83  61 2.83  45 2.85  39 2.85
  24  0.244  0.242  0.995-  33 2.79  40 2.86  57 2.86  48 2.88
  25  0.252  0.247  0.499-  32 2.83  56 2.84  49 2.84  41 2.84
  26  0.246  0.753  0.002-  42 2.81  35 2.84  59 2.85  50 2.87
  27  0.250  0.747  0.501-  43 2.83  34 2.84  51 2.84  58 2.85
  28  0.757  0.244  0.003-  52 2.81  61 2.85  37 2.86  44 2.87
  29  0.751  0.246  0.501-  53 2.83  60 2.84  36 2.84  45 2.85
  30  0.758  0.752  0.995-  63 2.79  54 2.86  39 2.86  46 2.87
  31  0.752  0.748  0.499-  62 2.82  55 2.84  38 2.84  47 2.85
  32  0.126  0.124  0.374-  25 2.83   1 2.84  16 2.85   8 2.87
  33  0.116  0.112  0.886-  24 2.79   9 2.79  17 2.80
  34  0.126  0.622  0.375-  27 2.84   3 2.84  18 2.84  10 2.86
  35  0.126  0.624  0.874-  19 2.84   2 2.84  26 2.84  11 2.88
  36  0.626  0.122  0.374-  29 2.84   5 2.84  12 2.84  20 2.86
  37  0.629  0.122  0.875-  13 2.84   4 2.84  28 2.86  21 2.87
  38  0.626  0.623  0.374-   7 2.83  31 2.84  14 2.84  22 2.85
  39  0.627  0.624  0.876-   6 2.84  15 2.84  23 2.85  30 2.86
  40  0.126  0.371  0.125-  18 2.82   2 2.84  24 2.86   8 2.87
  41  0.128  0.373  0.626-  19 2.83   3 2.84  25 2.84   9 2.85
  42  0.118  0.881  0.118-  10 2.79  16 2.80  26 2.81
  43  0.126  0.873  0.626-  27 2.83   1 2.84  17 2.85  11 2.88
  44  0.626  0.371  0.125-  22 2.84  12 2.84   6 2.85  28 2.87
  45  0.626  0.373  0.626-   7 2.83  13 2.84  23 2.85  29 2.85
  46  0.629  0.874  0.124-  14 2.82   4 2.84  20 2.86  30 2.87
  47  0.628  0.874  0.626-  15 2.83   5 2.84  31 2.85  21 2.86
  48  0.375  0.122  0.124-  12 2.82   4 2.84  16 2.86  24 2.88
  49  0.376  0.122  0.626-  13 2.84  25 2.84   5 2.84  17 2.86
  50  0.375  0.625  0.124-  18 2.84  14 2.84   6 2.85  26 2.87
  51  0.378  0.624  0.626-  19 2.84   7 2.84  27 2.84  15 2.84
  52  0.885  0.115  0.118-   8 2.78  20 2.79  28 2.81
  53  0.878  0.124  0.626-  29 2.83   1 2.84  21 2.85   9 2.88
  54  0.876  0.623  0.126-  22 2.82   2 2.85  30 2.86  10 2.87
  55  0.876  0.624  0.626-  23 2.83  31 2.84   3 2.84  11 2.86
  56  0.377  0.374  0.374-   7 2.83  25 2.84  12 2.84  18 2.85
  57  0.375  0.371  0.876-   6 2.84  19 2.84  13 2.84  24 2.86
  58  0.375  0.872  0.374-   5 2.84  14 2.84  27 2.85  16 2.87
  59  0.374  0.874  0.875-  15 2.84   4 2.84  26 2.85  17 2.87
  60  0.875  0.373  0.376-  22 2.84  29 2.84   3 2.84   8 2.85
  61  0.878  0.371  0.875-  23 2.83   2 2.85  28 2.85   9 2.88
  62  0.876  0.873  0.374-  31 2.82   1 2.84  20 2.85  10 2.87
  63  0.886  0.883  0.886-  11 2.78  30 2.79  21 2.80
 

IMPORTANT INFORMATION: All symmetrisations will be switched off!
NOSYMM: (Re-)initialisation of all symmetry stuff for point group C_1.


----------------------------------------------------------------------------------------

                                     Primitive cell                                     

  volume of cell :    2241.2856

  direct lattice vectors                    reciprocal lattice vectors
    13.086768000  0.000000000  0.000000000     0.076413061  0.000000000  0.000000000
     0.000000000 13.086768000  0.000000000     0.000000000  0.076413061  0.000000000
     0.000000000  0.000000000 13.086768000     0.000000000  0.000000000  0.076413061

  length of vectors
    13.086768000 13.086768000 13.086768000     0.076413061  0.076413061  0.076413061

  position of ions in fractional coordinates (direct lattice)
     0.001675169  0.997693485  0.499609759
     0.002138468  0.498063475  0.000366335
     0.001431073  0.497708671  0.501173726
     0.501636672  0.997390751  0.999590977
     0.500903954  0.996668071  0.499828919
     0.501265795  0.497494372  0.999311464
     0.501956041  0.497970776  0.500145664
     0.994793105  0.244253308  0.246488944
     0.009893822  0.242848427  0.755343583
     0.006419636  0.752023888  0.245527501
     0.993153649  0.754211740  0.755373085
     0.499421669  0.246225458  0.248577262
     0.501929261  0.246446122  0.751440662
     0.502462232  0.749643520  0.247647822
     0.502027802  0.750229026  0.751269217
     0.245569329  0.994190591  0.246170079
     0.244023656  0.003738394  0.753921258
     0.250739454  0.498034676  0.247598662
     0.251987296  0.498388751  0.750873781
     0.756789471  0.002810713  0.245755136
     0.759047078  0.993560493  0.754254716
     0.751387156  0.497396751  0.248532898
     0.752433383  0.497564876  0.751169050
     0.244492501  0.242450907  0.994813911
     0.252094852  0.247469455  0.499260344
     0.245534067  0.752964103  0.001726981
     0.250076891  0.747459570  0.500780344
     0.756977737  0.243715310  0.003358012
     0.751478369  0.246437372  0.500802390
     0.757820876  0.752372793  0.994775834
     0.751753163  0.748264093  0.498789489
     0.126176365  0.123890627  0.374330111
     0.115923063  0.112332040  0.885911436
     0.126028219  0.622479378  0.374513581
     0.125584117  0.624306482  0.874176588
     0.626097973  0.122232778  0.374336185
     0.628848472  0.121807486  0.875323441
     0.625875944  0.623066266  0.374148458
     0.626789936  0.624009533  0.875920797
     0.126079560  0.371408953  0.125275115
     0.127662373  0.372782991  0.625773749
     0.117743609  0.880889069  0.117590405
     0.125825312  0.872533369  0.626247005
     0.626206774  0.371007973  0.124658083
     0.626044499  0.372668764  0.625910206
     0.628683291  0.873678689  0.124284195
     0.628032112  0.873933348  0.626127143
     0.374570313  0.121529809  0.124296861
     0.376224771  0.122228161  0.626074337
     0.375450888  0.624858796  0.123698747
     0.377541362  0.623675117  0.625882157
     0.885310608  0.115311690  0.117841648
     0.877659141  0.123587723  0.626170625
     0.875897509  0.623390013  0.125523086
     0.875726734  0.623852131  0.625630897
     0.376763181  0.373905231  0.374300348
     0.375398241  0.371259896  0.876072752
     0.375241135  0.872254547  0.374009346
     0.374137462  0.874366693  0.874551736
     0.875494967  0.372935662  0.375618736
     0.877572381  0.371400150  0.875035284
     0.876005364  0.872828969  0.373998893
     0.886141698  0.883204728  0.886174244

  ion indices of the primitive-cell ions
   primitive index   ion index
                 1           1
                 2           2
                 3           3
                 4           4
                 5           5
                 6           6
                 7           7
                 8           8
                 9           9
                10          10
                11          11
                12          12
                13          13
                14          14
                15          15
                16          16
                17          17
                18          18
                19          19
                20          20
                21          21
                22          22
                23          23
                24          24
                25          25
                26          26
                27          27
                28          28
                29          29
                30          30
                31          31
                32          32
                33          33
                34          34
                35          35
                36          36
                37          37
                38          38
                39          39
                40          40
                41          41
                42          42
                43          43
                44          44
                45          45
                46          46
                47          47
                48          48
                49          49
                50          50
                51          51
                52          52
                53          53
                54          54
                55          55
                56          56
                57          57
                58          58
                59          59
                60          60
                61          61
                62          62
                63          63

----------------------------------------------------------------------------------------

 
 
 KPOINTS: Kpoints from DefectsWithTheBoys.vasp_gam

Automatic generation of k-mesh.
Space group operators:
 irot       det(A)        alpha          n_x          n_y          n_z        tau_x        tau_y        tau_z
    1     1.000000     0.000000     1.000000     0.000000     0.000000     0.000000     0.000000     0.000000
 
 Subroutine IBZKPT returns following result:
 ===========================================
 
 Found      1 irreducible k-points:
 
 Following reciprocal coordinates:
            Coordinates               Weight
  0.000000  0.000000  0.000000      1.000000
 
 Following cartesian coordinates:
            Coordinates               Weight
  0.000000  0.000000  0.000000      1.000000
 
 
 Subroutine IBZKPT_HF returns following result:
 ==============================================
 
 Found      1 k-points in 1st BZ
 the following      1 k-points will be used (e.g. in the exchange kernel)
 Following reciprocal coordinates:   # in IRBZ
  0.000000  0.000000  0.000000    1.00000000   1 t-inv F


--------------------------------------------------------------------------------------------------------




 Dimension of arrays:
   k-points           NKPTS =      1   k-points in BZ     NKDIM =      1   number of bands    NBANDS=    340
   number of dos      NEDOS =   2000   number of ions     NIONS =     63
   non local maximal  LDIM  =      6   non local SUM 2l+1 LMDIM =     18
   total plane-waves  NPLWV = 884736
   max r-space proj   IRMAX =   4034   max aug-charges    IRDMAX=  23156
   dimension x,y,z NGX =    96 NGY =   96 NGZ =   96
   dimension x,y,z NGXF=   192 NGYF=  192 NGZF=  192
   support grid    NGXF=   192 NGYF=  192 NGZF=  192
   ions per type =              31  32
   NGX,Y,Z   is equivalent  to a cutoff of  12.20, 12.20, 12.20 a.u.
   NGXF,Y,Z  is equivalent  to a cutoff of  24.39, 24.39, 24.39 a.u.

 SYSTEM =  unknown system                          
 POSCAR =  20.0%_BDM_Distortion_vac_1_Cd[0. 0. 0.]_

 Startparameter for this run:
   NWRITE =      2    write-flag & timer
   PREC   = accura    normal or accurate (medium, high low for compatibility)
   ISTART =      0    job   : 0-new  1-cont  2-samecut
   ICHARG =      1    charge: 1-file 2-atom 10-const
   ISPIN  =      1    spin polarized calculation?
   LNONCOLLINEAR =      F non collinear calculations
   LSORBIT =      F    spin-orbit coupling
   INIWAV =      1    electr: 0-lowe 1-rand  2-diag
   LASPH  =      T    aspherical Exc in radial PAW
   METAGGA=      F    non-selfconsistent MetaGGA calc.

 Electronic Relaxation 1
   ENCUT  =  450.0 eV  33.07 Ry    5.75 a.u.  22.64 22.64 22.64*2*pi/ulx,y,z
   ENINI  =  450.0     initial cutoff
   ENAUG  =  456.1 eV  augmentation charge cutoff
   NELM   =    100;   NELMIN=  2; NELMDL=  0     # of ELM steps 
   EDIFF  = 0.5E-05   stopping-criterion for ELM
   LREAL  =      T    real-space projection
   NLSPLINE    = F    spline interpolate recip. space projectors
   LCOMPAT=      F    compatible to vasp.4.4
   GGA_COMPAT  = T    GGA compatible to vasp.4.4-vasp.4.6
   LMAXPAW     = -100 max onsite density
   LMAXMIX     =    2 max onsite mixed and CHGCAR
   VOSKOWN=      0    Vosko Wilk Nusair interpolation
   ROPT   =   -0.00100  -0.00100
 Ionic relaxation
   EDIFFG = -.1E-01   stopping-criterion for IOM
   NSW    =    300    number of steps for IOM
   NBLOCK =      1;   KBLOCK =    300    inner block; outer block 
   IBRION =      2    ionic relax: 0-MD 1-quasi-New 2-CG
   NFREE  =      1    steps in history (QN), initial steepest desc. (CG)
   ISIF   =      2    stress and relaxation
   IWAVPR =     11    prediction:  0-non 1-charg 2-wave 3-comb
   ISYM   =      0    0-nonsym 1-usesym 2-fastsym
   LCORR  =      T    Harris-Foulkes like correction to forces

   POTIM  = 0.2000    time-step for ionic-motion
   TEIN   =    0.0    initial temperature
   TEBEG  =    0.0;   TEEND  =   0.0 temperature during run
   SMASS  =  -3.00    Nose mass-parameter (am)
   estimated Nose-frequenzy (Omega)   =  0.10E-29 period in steps = 0.31E+47 mass=  -0.391E-26a.u.
   SCALEE = 1.0000    scale energy and forces
   NPACO  =    256;   APACO  = 16.0  distance and # of slots for P.C.
   PSTRESS=    0.0 pullay stress

  Mass of Ions in am
   POMASS = 112.41127.60
  Ionic Valenz
   ZVAL   =  12.00  6.00
  Atomic Wigner-Seitz radii
   RWIGS  =  -1.00 -1.00
  virtual crystal weights 
   VCA    =   1.00  1.00
   NELECT =     564.0000    total number of electrons
   NUPDOWN=       0.0000    fix difference up-down

 DOS related values:
   EMIN   =  10.00;   EMAX   =-10.00  energy-range for DOS
   EFERMI =   0.00
   ISMEAR =     0;   SIGMA  =   0.05  broadening in eV -4-tet -1-fermi 0-gaus

 Electronic relaxation 2 (details)
   IALGO  =     38    algorithm
   LDIAG  =      T    sub-space diagonalisation (order eigenvalues)
   LSUBROT=      F    optimize rotation matrix (better conditioning)
   TURBO    =      0    0=normal 1=particle mesh
   IRESTART =      0    0=no restart 2=restart with 2 vectors
   NREBOOT  =      0    no. of reboots
   NMIN     =      0    reboot dimension
   EREF     =   0.00    reference energy to select bands
   IMIX   =      1    mixing-type and parameters
     AMIX     =   0.40;   BMIX     =  1.00
     AMIX_MAG =   1.60;   BMIX_MAG =  1.00
     AMIN     =   0.10
     WC   =   100.;   INIMIX=   1;  MIXPRE=   1;  MAXMIX= -45

 Intra band minimization:
   WEIMIN = 0.0010     energy-eigenvalue tresh-hold
   EBREAK =  0.37E-08  absolut break condition
   DEPER  =   0.30     relativ break condition  

   TIME   =   0.40     timestep for ELM

  volume/ion in A,a.u.               =      35.58       240.08
  Fermi-wavevector in a.u.,A,eV,Ry     =   1.033559  1.953144 14.534357  1.068245
  Thomas-Fermi vector in A             =   2.167812
 
 Write flags
   LWAVE        =      F    write WAVECAR
   LDOWNSAMPLE  =      F    k-point downsampling of WAVECAR
   LCHARG       =      T    write CHGCAR
   LVTOT        =      F    write LOCPOT, total local potential
   LVHAR        =      F    write LOCPOT, Hartree potential only
   LELF         =      F    write electronic localiz. function (ELF)
   LORBIT       =     11    0 simple, 1 ext, 2 COOP (PROOUT), +10 PAW based schemes


 Dipole corrections
   LMONO  =      F    monopole corrections only (constant potential shift)
   LDIPOL =      F    correct potential (dipole corrections)
   IDIPOL =      0    1-x, 2-y, 3-z, 4-all directions 
   EPSILON=  1.0000000 bulk dielectric constant

 Exchange correlation treatment:
   GGA     =    --    GGA type
   LEXCH   =     8    internal setting for exchange type
   VOSKOWN=      0    Vosko Wilk Nusair interpolation
   EXXOEP  =     0    0=HF, 1=EXX-LHF (local Hartree Fock) 2=EXX OEP
   LHFCALC =     T    Hartree Fock is set to
   LSYMGRAD=     F    symmetrize gradient (conserves proper symmetry)
   PRECFOCK=fast      Normal, Fast or Accurate (Low or Medium for compatibility)
   LRHFCALC=     F    long range Hartree Fock
   LRSCOR  =     F    long range correlation only (use DFT for short range part)
   LTHOMAS =     F    Thomas Fermi screening in HF
   LMODELHF=     F    short range full HF, long range fraction AEXX
   LFOCKACE=     T    use Adeptively-Compressed-Exchange operator
   ENCUT4O =  -1.0   cutoff for four orbital integrals eV
   LMAXFOCK=     4    L truncation for augmentation on plane wave grid
   LMAXFOCKAE=  -1    L truncation for all-electron charge restoration on plane wave grid
   NMAXFOCKAE=   1    number of basis functions for all-electron charge restoration
   LFOCKAEDFT=     F  apply the AE augmentation even for DFT
   NKREDX  =     1    reduce k-point grid by
   NKREDY  =     1    reduce k-point grid by
   NKREDZ  =     1    reduce k-point grid by
   SHIFTRED=     F    shift reduced grid of Gamma
   HFKIDENT=     F    idential grid for each k-point
   ODDONLY =     F    use only odd q-grid points
   EVENONLY=     F    use only even q-grid points
   HFALPHA =   -1.0000 decay constant for conv. correction
   MCALPHA =    0.0000 extent of test-charge in conv. correction in multipole expansion
   AEXX    =    0.3450 exact exchange contribution
   HFSCREEN=    0.2000 screening length (either q_TF or 0.3 A-1)
   HFSCREENC=   0.2000 screening length for correlation (either q_TF or 0.3 A-1)
   HFRCUT  =    0.0000 spherical cutoff for potential kernel
   ALDAX   =    0.6550 LDA exchange part
   AGGAX   =    0.6550 GGA exchange part
   ALDAC   =    1.0000 LDA correlation
   AGGAC   =    1.0000 GGA correlation
   ENCUTFOCK=  -1.0 apply spherical cutoff to Coloumb kernel
   NBANDSGWLOW=     1    first orbital included in HF term
   NBLOCK_FOCK=    64    blocking factor in FOCK_ACC
 Linear response parameters
   LEPSILON=     F    determine dielectric tensor
   LRPA    =     F    only Hartree local field effects (RPA)
   LNABLA  =     F    use nabla operator in PAW spheres
   LVEL    =     F    velocity operator in full k-point grid
   LINTERFAST=   F  fast interpolation
   KINTER  =     0    interpolate to denser k-point grid
   CSHIFT  =0.1000    complex shift for real part using Kramers Kronig
   OMEGAMAX=  -1.0    maximum frequency
   DEG_THRESHOLD= 0.2000000E-02 threshold for treating states as degnerate
   RTIME   =   -0.100 relaxation time in fs
  (WPLASMAI=    0.000 imaginary part of plasma frequency in eV, 0.658/RTIME)
   DFIELD  = 0.0000000 0.0000000 0.0000000 field for delta impulse in time
 
 Orbital magnetization related:
   ORBITALMAG=     F  switch on orbital magnetization
   LCHIMAG   =     F  perturbation theory with respect to B field
   DQ        =  0.001000  dq finite difference perturbation B field
   LLRAUG    =     F  two centre corrections for induced B field



--------------------------------------------------------------------------------------------------------


 conjugate gradient relaxation of ions
 charge density and potential will be updated during run
 non-spin polarized calculation
 Variant of blocked Davidson
 Davidson routine will perform the subspace rotation
 perform sub-space diagonalisation
    after iterative eigenvector-optimisation
 Kerker-like  mixing scheme
 using additional bands           58
 real space projection scheme for non local part
 use partial core corrections
 calculate Harris-corrections to forces 
   (improved forces if not selfconsistent)
 use gradient corrections 
 use of overlap-Matrix (Vanderbilt PP)
 Gauss-broadening in eV      SIGMA  =   0.05


--------------------------------------------------------------------------------------------------------


  energy-cutoff  :      450.00
  volume of cell :     2241.29
      direct lattice vectors                 reciprocal lattice vectors
    13.086768000  0.000000000  0.000000000     0.076413061  0.000000000  0.000000000
     0.000000000 13.086768000  0.000000000     0.000000000  0.076413061  0.000000000
     0.000000000  0.000000000 13.086768000     0.000000000  0.000000000  0.076413061

  length of vectors
    13.086768000 13.086768000 13.086768000     0.076413061  0.076413061  0.076413061


 
 k-points in units of 2pi/SCALE and weight: Kpoints from DefectsWithTheBoys.vasp_gam
   0.00000000  0.00000000  0.00000000       1.000
 
 k-points in reciprocal lattice and weights: Kpoints from DefectsWithTheBoys.vasp_gam
   0.00000000  0.00000000  0.00000000       1.000
 
 position of ions in fractional coordinates (direct lattice) 
   0.00167517  0.99769349  0.49960976
   0.00213847  0.49806348  0.00036634
   0.00143107  0.49770867  0.50117373
   0.50163667  0.99739075  0.99959098
   0.50090395  0.99666807  0.49982892
   0.50126580  0.49749437  0.99931146
   0.50195604  0.49797078  0.50014566
   0.99479311  0.24425331  0.24648894
   0.00989382  0.24284843  0.75534358
   0.00641964  0.75202389  0.24552750
   0.99315365  0.75421174  0.75537308
   0.49942167  0.24622546  0.24857726
   0.50192926  0.24644612  0.75144066
   0.50246223  0.74964352  0.24764782
   0.50202780  0.75022903  0.75126922
   0.24556933  0.99419059  0.24617008
   0.24402366  0.00373839  0.75392126
   0.25073945  0.49803468  0.24759866
   0.25198730  0.49838875  0.75087378
   0.75678947  0.00281071  0.24575514
   0.75904708  0.99356049  0.75425472
   0.75138716  0.49739675  0.24853290
   0.75243338  0.49756488  0.75116905
   0.24449250  0.24245091  0.99481391
   0.25209485  0.24746945  0.49926034
   0.24553407  0.75296410  0.00172698
   0.25007689  0.74745957  0.50078034
   0.75697774  0.24371531  0.00335801
   0.75147837  0.24643737  0.50080239
   0.75782088  0.75237279  0.99477583
   0.75175316  0.74826409  0.49878949
   0.12617637  0.12389063  0.37433011
   0.11592306  0.11233204  0.88591144
   0.12602822  0.62247938  0.37451358
   0.12558412  0.62430648  0.87417659
   0.62609797  0.12223278  0.37433618
   0.62884847  0.12180749  0.87532344
   0.62587594  0.62306627  0.37414846
   0.62678994  0.62400953  0.87592080
   0.12607956  0.37140895  0.12527511
   0.12766237  0.37278299  0.62577375
   0.11774361  0.88088907  0.11759040
   0.12582531  0.87253337  0.62624700
   0.62620677  0.37100797  0.12465808
   0.62604450  0.37266876  0.62591021
   0.62868329  0.87367869  0.12428420
   0.62803211  0.87393335  0.62612714
   0.37457031  0.12152981  0.12429686
   0.37622477  0.12222816  0.62607434
   0.37545089  0.62485880  0.12369875
   0.37754136  0.62367512  0.62588216
   0.88531061  0.11531169  0.11784165
   0.87765914  0.12358772  0.62617063
   0.87589751  0.62339001  0.12552309
   0.87572673  0.62385213  0.62563090
   0.37676318  0.37390523  0.37430035
   0.37539824  0.37125990  0.87607275
   0.37524113  0.87225455  0.37400935
   0.37413746  0.87436669  0.87455174
   0.87549497  0.37293566  0.37561874
   0.87757238  0.37140015  0.87503528
   0.87600536  0.87282897  0.37399889
   0.88614170  0.88320473  0.88617424
 
 position of ions in cartesian coordinates  (Angst):
   0.02192255 13.05658318  6.53827701
   0.02798564  6.51804115  0.00479415
   0.01872812  6.51339791  6.55874428
   6.56480275 13.05262136 13.08141521
   6.55521383 13.04316382  6.54114510
   6.55994917  6.51059342 13.07775729
   6.56898225  6.51682801  6.54529027
  13.01862657  3.19648638  3.22574363
   0.12947815  3.17810102  9.88500624
   0.08401228  9.84156215  3.21316144
  12.99717140  9.87019407  9.88539232
   6.53581551  3.22229544  3.25307295
   6.56863180  3.22518323  9.83392961
   6.57560666  9.81041083  3.24090959
   6.56992137  9.81807320  9.83168594
   3.21370884 13.01074161  3.22157072
   3.19348097  0.04892349  9.86639259
   3.28136906  6.51766426  3.24026624
   3.29769928  6.52229796  9.82651097
   9.90392823  0.03678315  3.21614044
   9.93347301 13.00249567  9.87075648
   9.83322939  6.50931588  3.25249238
   9.84692112  6.51151610  9.83037509
   3.19961664  3.17289877 13.01889886
   3.29910684  3.23857534  6.53370429
   3.21324738  9.85386653  0.02260060
   3.27269825  9.78182999  6.55359618
   9.90639202  3.18944572  0.04394552
   9.83442307  3.22506872  6.55388469
   9.91742599  9.84612819 13.01840055
   9.83801924  9.79235858  6.52754232
   1.65124082  1.62132790  4.89877132
   1.51705823  1.47006335 11.59371743
   1.64930206  8.14624321  4.90117235
   1.64349020  8.17015409 11.44014620
   8.19359892  1.59963201  4.89885081
   8.22959406  1.59406630 11.45515480
   8.19069328  8.15392367  4.89639407
   8.20265448  8.16626799 11.46297226
   1.64997395  4.86054281  1.63944636
   1.67068786  4.87852451  8.18935588
   1.54088330 11.52799088  1.53887835
   1.64664667 11.41864177  8.19554926
   8.19502277  4.85529527  1.63137141
   8.19289911  4.87702966  8.19114166
   8.22743237 11.43363031  1.62647843
   8.21891054 11.43696298  8.19398066
   4.90191478  1.59043241  1.62664418
   4.92356629  1.59957159  8.19328959
   4.91343866  8.17738209  1.61881680
   4.94079622  8.16189156  8.19077459
  11.58585453  1.50905734  1.54216631
  11.48572156  1.61736386  8.19454970
  11.46266749  8.15816047  1.64269151
  11.46043261  8.16420811  8.18748640
   4.93061234  4.89321101  4.89838182
   4.91274969  4.85859212 11.46496086
   4.91069368 11.41499289  4.89457354
   4.89625017 11.44263405 11.44505567
  11.45739952  4.88052249  4.91563526
  11.48458615  4.86042760 11.45138376
  11.46407897 11.42251022  4.89443675
  11.59673081 11.55829537 11.59715674
 


--------------------------------------------------------------------------------------------------------


 use parallel FFT for orbitals z direction half grid
 k-point   1 :   0.0000 0.0000 0.0000  plane waves:   24251

 maximum and minimum number of plane-waves per node :      2027     2015

 maximum number of plane-waves:     24251
 maximum index in each direction: 
   IXMAX=   22   IYMAX=   22   IZMAX=   22
   IXMIN=  -22   IYMIN=  -22   IZMIN=    0


 real space projection operators:
  total allocation   :      27344.65 KBytes
  max/ min on nodes  :       2577.35       2067.11


 parallel 3D FFT for wavefunctions:
    minimum data exchange during FFTs selected (reduces bandwidth)
 parallel 3D FFT for charge:
    minimum data exchange during FFTs selected (reduces bandwidth)


 FFT grid for exact exchange (Hartree Fock) 
  NGX = 48; NGY = 48; NGZ = 48

 use parallel FFT for orbitals z direction half grid
 
 Radii for the augmentation spheres in the non-local exchange
 for species   1 augmentation radius   1.444 (default was   1.070)
       energy cutoff for augmentation   1800.0
 for species   2 augmentation radius   1.606 (default was   1.190)
       energy cutoff for augmentation   1800.0

 real space projection operators:
  total allocation   :       9140.04 KBytes
  max/ min on nodes  :        879.88        555.08

 Maximum index for augmentation-charges in exchange           92
  SETUP_FOCK is finished

 total amount of memory used by VASP MPI-rank0    54473. kBytes
=======================================================================

   base      :      30000. kBytes
   nonlr-proj:       3329. kBytes
   fftplans  :       6877. kBytes
   grid      :      11280. kBytes
   one-center:         46. kBytes
   HF        :        129. kBytes
   wavefun   :       2812. kBytes
 
     INWAV:  cpu time    0.0001: real time    0.0002
 initial charge density was supplied:
 charge density of overlapping atoms calculated
 number of electron     564.0000000 magnetization 
 keeping initial charge density in first step


--------------------------------------------------------------------------------------------------------


 Maximum index for non-local projection operator          299
 Maximum index for augmentation-charges          779 (set IRDMAX)


--------------------------------------------------------------------------------------------------------


 First call to EWALD:  gamma=   0.135
 Maximum number of real-space cells 3x 3x 3
 Maximum number of reciprocal cells 3x 3x 3

    FEWALD:  cpu time    0.0029: real time    0.0674


--------------------------------------- Iteration      1(   1)  ---------------------------------------


    POTLOK:  cpu time    0.1098: real time    0.2427
    SETDIJ:  cpu time    0.5685: real time    0.6067
     EDDAV:  cpu time    2.3374: real time    2.4980
       DOS:  cpu time    0.0008: real time    0.0722
    --------------------------------------------
      LOOP:  cpu time    3.0166: real time    3.4558

 eigenvalue-minimisations  :   720
 total energy-change (2. order) :-0.8811822E+05  (-0.2741805E+05)
 number of electron     564.0000000 magnetization 
 augmentation part      564.0000000 magnetization 

 Free energy of the ion-electron system (eV)
  ---------------------------------------------------
  alpha Z        PSCENC =      1482.04539224
  Ewald energy   TEWEN  =    -31949.04658608
  -Hartree energ DENC   =    -16280.36558133
  -exchange      EXHF   =         0.00000000
  -V(xc)+E(xc)   XCENC  =      -734.39083863
  PAW double counting   =     43745.08136476  -132352.96792733
  entropy T*S    EENTRO =        -0.00482785
  eigenvalues    EBANDS =       833.04674450
  atomic energy  EATOM  =     47138.37786884
  Solvation  Ediel_sol  =         0.00000000
  ---------------------------------------------------
  free energy    TOTEN  =    -88118.22439087 eV

  energy without entropy =   -88118.21956302  energy(sigma->0) =   -88118.22197695
  exchange ACFDT corr.  =         0.00000000  see jH, gK, PRB 81, 115126


--------------------------------------------------------------------------------------------------------




--------------------------------------- Iteration      1(   2)  ---------------------------------------


     EDDAV:  cpu time    1.4969: real time    2.8150
       DOS:  cpu time    0.0009: real time    0.0626
    --------------------------------------------
      LOOP:  cpu time    1.4978: real time    2.8800

 eigenvalue-minimisations  :   780
 total energy-change (2. order) :-0.4706175E+04  (-0.4568849E+04)
 number of electron     564.0000000 magnetization 
 augmentation part      564.0000000 magnetization 

 Free energy of the ion-electron system (eV)
  ---------------------------------------------------
  alpha Z        PSCENC =      1482.04539224
  Ewald energy   TEWEN  =    -31949.04658608
  -Hartree energ DENC   =    -16280.36558133
  -exchange      EXHF   =         0.00000000
  -V(xc)+E(xc)   XCENC  =      -734.39083863
  PAW double counting   =     43745.08136476  -132352.96792733
  entropy T*S    EENTRO =        -0.00137562
  eigenvalues    EBANDS =     -3873.13178396
  atomic energy  EATOM  =     47138.37786884
  Solvation  Ediel_sol  =         0.00000000
  ---------------------------------------------------
  free energy    TOTEN  =    -92824.39946710 eV

  energy without entropy =   -92824.39809148  energy(sigma->0) =   -92824.39877929
  exchange ACFDT corr.  =         0.00000000  see jH, gK, PRB 81, 115126


--------------------------------------------------------------------------------------------------------




--------------------------------------- Iteration      1(   3)  ---------------------------------------


     EDDAV:  cpu time    2.1227: real time    3.1578
       DOS:  cpu time    0.0010: real time    0.0863
    --------------------------------------------
      LOOP:  cpu time    2.1237: real time    3.2689

 eigenvalue-minimisations  :   772
 total energy-change (2. order) :-0.3855613E+03  (-0.3803880E+03)
 number of electron     564.0000000 magnetization 
 augmentation part      564.0000000 magnetization 

 Free energy of the ion-electron system (eV)
  ---------------------------------------------------
  alpha Z        PSCENC =      1482.04539224
  Ewald energy   TEWEN  =    -31949.04658608
  -Hartree energ DENC   =    -16280.36558133
  -exchange      EXHF   =         0.00000000
  -V(xc)+E(xc)   XCENC  =      -734.39083863
  PAW double counting   =     43745.08136476  -132352.96792733
  entropy T*S    EENTRO =        -0.07100131
  eigenvalues    EBANDS =     -4258.62346097
  atomic energy  EATOM  =     47138.37786884
  Solvation  Ediel_sol  =         0.00000000
  ---------------------------------------------------
  free energy    TOTEN  =    -93209.96076980 eV

  energy without entropy =   -93209.88976849  energy(sigma->0) =   -93209.92526915
  exchange ACFDT corr.  =         0.00000000  see jH, gK, PRB 81, 115126


--------------------------------------------------------------------------------------------------------




--------------------------------------- Iteration      1(   4)  ---------------------------------------


     EDDAV:  cpu time    2.1891: real time    3.6795
       DOS:  cpu time    0.0016: real time    0.0680
    --------------------------------------------
      LOOP:  cpu time    2.1907: real time    3.8553

 eigenvalue-minimisations  :   824
 total energy-change (2. order) :-0.1953522E+02  (-0.1946794E+02)
 number of electron     564.0000000 magnetization 
 augmentation part      564.0000000 magnetization 

 Free energy of the ion-electron system (eV)
  ---------------------------------------------------
  alpha Z        PSCENC =      1482.04539224
  Ewald energy   TEWEN  =    -31949.04658608
  -Hartree energ DENC   =    -16280.36558133
  -exchange      EXHF   =         0.00000000
  -V(xc)+E(xc)   XCENC  =      -734.39083863
  PAW double counting   =     43745.08136476  -132352.96792733
  entropy T*S    EENTRO =        -0.07592698
  eigenvalues    EBANDS =     -4278.15375863
  atomic energy  EATOM  =     47138.37786884
  Solvation  Ediel_sol  =         0.00000000
  ---------------------------------------------------
  free energy    TOTEN  =    -93229.49599313 eV

  energy without entropy =   -93229.42006616  energy(sigma->0) =   -93229.45802964
  exchange ACFDT corr.  =         0.00000000  see jH, gK, PRB 81, 115126


--------------------------------------------------------------------------------------------------------




--------------------------------------- Iteration      1(   5)  ---------------------------------------


    POTLOK:  cpu time    0.2451: real time    1.8769
    SETDIJ:  cpu time    0.9154: real time    0.9569
     EDDAV:  cpu time   18.1023: real time   18.2646
       DOS:  cpu time    0.0010: real time    0.0844
    CHARGE:  cpu time    0.0701: real time    0.0988
    MIXING:  cpu time    0.0012: real time    0.0386
    --------------------------------------------
      LOOP:  cpu time   19.3351: real time   21.1896

 eigenvalue-minimisations  :   680
 total energy-change (2. order) : 0.9302945E+05  (-0.7767573E+02)
 number of electron     564.0000010 magnetization 
 augmentation part      142.2768653 magnetization 

 Free energy of the ion-electron system (eV)
  ---------------------------------------------------
  alpha Z        PSCENC =      1482.04539224
  Ewald energy   TEWEN  =    -31949.04658608
  -Hartree energ DENC   =    -16280.36558133
  -exchange      EXHF   =      1582.21001402
  -V(xc)+E(xc)   XCENC  =      -599.65583318
  PAW double counting   =     43590.36926174   -41748.31759969
  entropy T*S    EENTRO =        -0.06999933
  eigenvalues    EBANDS =     -3415.58856820
  atomic energy  EATOM  =     47138.37786884
  Solvation  Ediel_sol  =         0.00000000
  ---------------------------------------------------
  free energy    TOTEN  =      -200.04163095 eV

  energy without entropy =     -199.97163162  energy(sigma->0) =     -200.00663129
  exchange ACFDT corr.  =         0.00000000  see jH, gK, PRB 81, 115126


--------------------------------------------------------------------------------------------------------




--------------------------------------- Iteration      1(   6)  ---------------------------------------


    POTLOK:  cpu time    0.2690: real time    1.3477
    SETDIJ:  cpu time    0.9199: real time    0.9681
     EDDAV:  cpu time   18.0621: real time   18.7422
       DOS:  cpu time    0.0010: real time    0.0695
    CHARGE:  cpu time    0.0677: real time    0.1173
    MIXING:  cpu time    0.0013: real time    0.0323
    --------------------------------------------
      LOOP:  cpu time   19.3210: real time   21.3251

 eigenvalue-minimisations  :   768
 total energy-change (2. order) :-0.5758530E+01  (-0.6051303E+01)
 number of electron     564.0000016 magnetization 
 augmentation part      142.3431295 magnetization 

 Free energy of the ion-electron system (eV)
  ---------------------------------------------------
  alpha Z        PSCENC =      1482.04539224
  Ewald energy   TEWEN  =    -31949.04658608
  -Hartree energ DENC   =    -16306.80149003
  -exchange      EXHF   =      1522.64314817
  -V(xc)+E(xc)   XCENC  =      -597.21147246
  PAW double counting   =     73844.81921446   -71979.47045193
  entropy T*S    EENTRO =        -0.04821980
  eigenvalues    EBANDS =     -3361.10756414
  atomic energy  EATOM  =     47138.37786884
  Solvation  Ediel_sol  =         0.00000000
  ---------------------------------------------------
  free energy    TOTEN  =      -205.80016072 eV

  energy without entropy =     -205.75194092  energy(sigma->0) =     -205.77605082
  exchange ACFDT corr.  =         0.00000000  see jH, gK, PRB 81, 115126


--------------------------------------------------------------------------------------------------------




--------------------------------------- Iteration      1(   7)  ---------------------------------------


    POTLOK:  cpu time    0.2456: real time    1.6953
    SETDIJ:  cpu time    0.9291: real time    0.9960
     EDDAV:  cpu time   18.8651: real time   19.1091
       DOS:  cpu time    0.0014: real time    0.1308
    CHARGE:  cpu time    0.0697: real time    0.0968
    MIXING:  cpu time    0.0013: real time    0.0243
    --------------------------------------------
      LOOP:  cpu time   20.1122: real time   22.0476

 eigenvalue-minimisations  :   784
 total energy-change (2. order) : 0.1207517E+00  (-0.9412873E+00)
 number of electron     564.0000020 magnetization 
 augmentation part      143.5240025 magnetization 

 Free energy of the ion-electron system (eV)
  ---------------------------------------------------
  alpha Z        PSCENC =      1482.04539224
  Ewald energy   TEWEN  =    -31949.04658608
  -Hartree energ DENC   =    -16227.60136649
  -exchange      EXHF   =      1504.00182977
  -V(xc)+E(xc)   XCENC  =      -597.13828503
  PAW double counting   =     99849.99570423   -97969.99749314
  entropy T*S    EENTRO =        -0.01414990
  eigenvalues    EBANDS =     -3436.30232346
  atomic energy  EATOM  =     47138.37786884
  Solvation  Ediel_sol  =         0.00000000
  ---------------------------------------------------
  free energy    TOTEN  =      -205.67940901 eV

  energy without entropy =     -205.66525911  energy(sigma->0) =     -205.67233406
  exchange ACFDT corr.  =         0.00000000  see jH, gK, PRB 81, 115126


--------------------------------------------------------------------------------------------------------




--------------------------------------- Iteration      1(   8)  ---------------------------------------


    POTLOK:  cpu time    0.2530: real time    1.5496
    SETDIJ:  cpu time    0.9013: real time    0.9453
     EDDAV:  cpu time   18.5141: real time   18.8269
       DOS:  cpu time    0.0010: real time    0.1032
    CHARGE:  cpu time    0.0683: real time    0.0896
    MIXING:  cpu time    0.0012: real time    0.0181
    --------------------------------------------
      LOOP:  cpu time   19.7389: real time   21.4811

 eigenvalue-minimisations  :   756
 total energy-change (2. order) :-0.1563993E+00  (-0.1556682E+00)
 number of electron     564.0000022 magnetization 
 augmentation part      143.9981952 magnetization 

 Free energy of the ion-electron system (eV)
  ---------------------------------------------------
  alpha Z        PSCENC =      1482.04539224
  Ewald energy   TEWEN  =    -31949.04658608
  -Hartree energ DENC   =    -16194.08218479
  -exchange      EXHF   =      1500.50878803
  -V(xc)+E(xc)   XCENC  =      -596.81991745
  PAW double counting   =    118073.08652501  -116188.19262224
  entropy T*S    EENTRO =        -0.00310691
  eigenvalues    EBANDS =     -3471.70996493
  atomic energy  EATOM  =     47138.37786884
  Solvation  Ediel_sol  =         0.00000000
  ---------------------------------------------------
  free energy    TOTEN  =      -205.83580827 eV

  energy without entropy =     -205.83270136  energy(sigma->0) =     -205.83425481
  exchange ACFDT corr.  =         0.00000000  see jH, gK, PRB 81, 115126


--------------------------------------------------------------------------------------------------------




--------------------------------------- Iteration      1(   9)  ---------------------------------------


    POTLOK:  cpu time    0.2592: real time    1.9597
    SETDIJ:  cpu time    0.9249: real time    0.9789
     EDDAV:  cpu time   18.0109: real time   18.4119
       DOS:  cpu time    0.0009: real time    0.0604
    CHARGE:  cpu time    0.0701: real time    0.0824
    MIXING:  cpu time    0.0012: real time    0.0454
    --------------------------------------------
      LOOP:  cpu time   19.2672: real time   21.5441

 eigenvalue-minimisations  :   740
 total energy-change (2. order) : 0.8904467E-01  (-0.1162292E-01)
 number of electron     564.0000023 magnetization 
 augmentation part      144.0517823 magnetization 

 Free energy of the ion-electron system (eV)
  ---------------------------------------------------
  alpha Z        PSCENC =      1482.04539224
  Ewald energy   TEWEN  =    -31949.04658608
  -Hartree energ DENC   =    -16186.90225950
  -exchange      EXHF   =      1500.17151433
  -V(xc)+E(xc)   XCENC  =      -596.38034138
  PAW double counting   =    130617.50550074  -128731.27223185
  entropy T*S    EENTRO =        -0.00367979
  eigenvalues    EBANDS =     -3480.24194115
  atomic energy  EATOM  =     47138.37786884
  Solvation  Ediel_sol  =         0.00000000
  ---------------------------------------------------
  free energy    TOTEN  =      -205.74676360 eV

  energy without entropy =     -205.74308381  energy(sigma->0) =     -205.74492371
  exchange ACFDT corr.  =         0.00000000  see jH, gK, PRB 81, 115126


--------------------------------------------------------------------------------------------------------




--------------------------------------- Iteration      1(  10)  ---------------------------------------


    POTLOK:  cpu time    0.2423: real time    1.3003
    SETDIJ:  cpu time    0.8977: real time    0.9314
     EDDAV:  cpu time   18.1114: real time   18.4928
       DOS:  cpu time    0.0010: real time    0.1019
    CHARGE:  cpu time    0.0679: real time    0.1276
    MIXING:  cpu time    0.0012: real time    0.0155
    --------------------------------------------
      LOOP:  cpu time   19.3216: real time   20.9490

 eigenvalue-minimisations  :   708
 total energy-change (2. order) : 0.4608237E-01  (-0.5853712E-02)
 number of electron     564.0000024 magnetization 
 augmentation part      143.9737856 magnetization 

 Free energy of the ion-electron system (eV)
  ---------------------------------------------------
  alpha Z        PSCENC =      1482.04539224
  Ewald energy   TEWEN  =    -31949.04658608
  -Hartree energ DENC   =    -16185.10841138
  -exchange      EXHF   =      1500.28441428
  -V(xc)+E(xc)   XCENC  =      -596.04196270
  PAW double counting   =    138522.59272329  -136635.80458933
  entropy T*S    EENTRO =        -0.00568024
  eigenvalues    EBANDS =     -3482.99385016
  atomic energy  EATOM  =     47138.37786884
  Solvation  Ediel_sol  =         0.00000000
  ---------------------------------------------------
  free energy    TOTEN  =      -205.70068123 eV

  energy without entropy =     -205.69500100  energy(sigma->0) =     -205.69784112
  exchange ACFDT corr.  =         0.00000000  see jH, gK, PRB 81, 115126


--------------------------------------------------------------------------------------------------------




--------------------------------------- Iteration      1(  11)  ---------------------------------------


    POTLOK:  cpu time    0.2445: real time    2.2975
    SETDIJ:  cpu time    0.9063: real time    0.9647
     EDDAV:  cpu time   17.8897: real time   18.1165
       DOS:  cpu time    0.0073: real time    0.1056
    CHARGE:  cpu time    0.0698: real time    0.0971
    MIXING:  cpu time    0.0012: real time    0.0390
    --------------------------------------------
      LOOP:  cpu time   19.1189: real time   21.6514

 eigenvalue-minimisations  :   740
 total energy-change (2. order) : 0.9402732E-02  (-0.3804368E-02)
 number of electron     564.0000024 magnetization 
 augmentation part      143.9054297 magnetization 

 Free energy of the ion-electron system (eV)
  ---------------------------------------------------
  alpha Z        PSCENC =      1482.04539224
  Ewald energy   TEWEN  =    -31949.04658608
  -Hartree energ DENC   =    -16183.79846163
  -exchange      EXHF   =      1500.48268140
  -V(xc)+E(xc)   XCENC  =      -595.82981050
  PAW double counting   =    143304.14731705  -141416.93836870
  entropy T*S    EENTRO =        -0.00649695
  eigenvalues    EBANDS =     -3485.12481417
  atomic energy  EATOM  =     47138.37786884
  Solvation  Ediel_sol  =         0.00000000
  ---------------------------------------------------
  free energy    TOTEN  =      -205.69127850 eV

  energy without entropy =     -205.68478155  energy(sigma->0) =     -205.68803003
  exchange ACFDT corr.  =         0.00000000  see jH, gK, PRB 81, 115126


--------------------------------------------------------------------------------------------------------




--------------------------------------- Iteration      1(  12)  ---------------------------------------


    POTLOK:  cpu time    0.2634: real time    1.4136
    SETDIJ:  cpu time    0.9190: real time    0.9594
     EDDAV:  cpu time   18.7112: real time   19.3235
       DOS:  cpu time    0.0011: real time    0.0571
    CHARGE:  cpu time    0.0695: real time    0.0832
    MIXING:  cpu time    0.0012: real time    0.0124
    --------------------------------------------
      LOOP:  cpu time   19.9655: real time   21.8159

 eigenvalue-minimisations  :   780
 total energy-change (2. order) : 0.3505696E-02  (-0.2175398E-02)
 number of electron     564.0000025 magnetization 
 augmentation part      143.8694519 magnetization 

 Free energy of the ion-electron system (eV)
  ---------------------------------------------------
  alpha Z        PSCENC =      1482.04539224
  Ewald energy   TEWEN  =    -31949.04658608
  -Hartree energ DENC   =    -16182.96445624
  -exchange      EXHF   =      1500.65192148
  -V(xc)+E(xc)   XCENC  =      -595.70281207
  PAW double counting   =    146173.45024914  -144285.92854247
  entropy T*S    EENTRO =        -0.00603696
  eigenvalues    EBANDS =     -3486.56477068
  atomic energy  EATOM  =     47138.37786884
  Solvation  Ediel_sol  =         0.00000000
  ---------------------------------------------------
  free energy    TOTEN  =      -205.68777281 eV

  energy without entropy =     -205.68173584  energy(sigma->0) =     -205.68475432
  exchange ACFDT corr.  =         0.00000000  see jH, gK, PRB 81, 115126


--------------------------------------------------------------------------------------------------------




--------------------------------------- Iteration      1(  13)  ---------------------------------------


    POTLOK:  cpu time    0.2476: real time    1.2756
    SETDIJ:  cpu time    0.9138: real time    0.9475
     EDDAV:  cpu time   17.8307: real time   17.9888
       DOS:  cpu time    0.0010: real time    0.1358
    CHARGE:  cpu time    0.0694: real time    0.0891
    MIXING:  cpu time    0.0012: real time    0.0444
    --------------------------------------------
      LOOP:  cpu time   19.0636: real time   20.5364

 eigenvalue-minimisations  :   724
 total energy-change (2. order) :-0.3205105E-03  (-0.1329710E-02)
 number of electron     564.0000025 magnetization 
 augmentation part      143.8546230 magnetization 

 Free energy of the ion-electron system (eV)
  ---------------------------------------------------
  alpha Z        PSCENC =      1482.04539224
  Ewald energy   TEWEN  =    -31949.04658608
  -Hartree energ DENC   =    -16182.65803641
  -exchange      EXHF   =      1500.75268651
  -V(xc)+E(xc)   XCENC  =      -595.62554035
  PAW double counting   =    147857.04415413  -145969.31218524
  entropy T*S    EENTRO =        -0.00527246
  eigenvalues    EBANDS =     -3487.26057450
  atomic energy  EATOM  =     47138.37786884
  Solvation  Ediel_sol  =         0.00000000
  ---------------------------------------------------
  free energy    TOTEN  =      -205.68809332 eV

  energy without entropy =     -205.68282085  energy(sigma->0) =     -205.68545709
  exchange ACFDT corr.  =         0.00000000  see jH, gK, PRB 81, 115126


--------------------------------------------------------------------------------------------------------




--------------------------------------- Iteration      1(  14)  ---------------------------------------


    POTLOK:  cpu time    0.2529: real time    1.3292
    SETDIJ:  cpu time    0.8982: real time    0.9612
     EDDAV:  cpu time   18.0749: real time   18.4062
       DOS:  cpu time    0.0012: real time    0.1087
    CHARGE:  cpu time    0.0719: real time    0.0986
    MIXING:  cpu time    0.0012: real time    0.0559
    --------------------------------------------
      LOOP:  cpu time   19.3003: real time   20.9184

 eigenvalue-minimisations  :   764
 total energy-change (2. order) :-0.6173125E-03  (-0.5320563E-03)
 number of electron     564.0000025 magnetization 
 augmentation part      143.8487624 magnetization 

 Free energy of the ion-electron system (eV)
  ---------------------------------------------------
  alpha Z        PSCENC =      1482.04539224
  Ewald energy   TEWEN  =    -31949.04658608
  -Hartree energ DENC   =    -16182.73177351
  -exchange      EXHF   =      1500.79540745
  -V(xc)+E(xc)   XCENC  =      -595.57715038
  PAW double counting   =    148832.43041806  -146944.57197580
  entropy T*S    EENTRO =        -0.00485297
  eigenvalues    EBANDS =     -3487.40545849
  atomic energy  EATOM  =     47138.37786884
  Solvation  Ediel_sol  =         0.00000000
  ---------------------------------------------------
  free energy    TOTEN  =      -205.68871063 eV

  energy without entropy =     -205.68385766  energy(sigma->0) =     -205.68628414
  exchange ACFDT corr.  =         0.00000000  see jH, gK, PRB 81, 115126


--------------------------------------------------------------------------------------------------------




--------------------------------------- Iteration      1(  15)  ---------------------------------------


    POTLOK:  cpu time    0.2553: real time    1.6035
    SETDIJ:  cpu time    0.9239: real time    1.0085
     EDDAV:  cpu time   17.8787: real time   18.0309
       DOS:  cpu time    0.0010: real time    0.0954
    CHARGE:  cpu time    0.0670: real time    0.1163
    MIXING:  cpu time    0.0012: real time    0.0333
    --------------------------------------------
      LOOP:  cpu time   19.1270: real time   20.8910

 eigenvalue-minimisations  :   732
 total energy-change (2. order) : 0.2033118E-03  (-0.2150310E-03)
 number of electron     564.0000025 magnetization 
 augmentation part      143.8460746 magnetization 

 Free energy of the ion-electron system (eV)
  ---------------------------------------------------
  alpha Z        PSCENC =      1482.04539224
  Ewald energy   TEWEN  =    -31949.04658608
  -Hartree energ DENC   =    -16182.90028580
  -exchange      EXHF   =      1500.79948683
  -V(xc)+E(xc)   XCENC  =      -595.54739900
  PAW double counting   =    149415.25927969  -147527.32592347
  entropy T*S    EENTRO =        -0.00479560
  eigenvalues    EBANDS =     -3487.34554497
  atomic energy  EATOM  =     47138.37786884
  Solvation  Ediel_sol  =         0.00000000
  ---------------------------------------------------
  free energy    TOTEN  =      -205.68850732 eV

  energy without entropy =     -205.68371172  energy(sigma->0) =     -205.68610952
  exchange ACFDT corr.  =         0.00000000  see jH, gK, PRB 81, 115126


--------------------------------------------------------------------------------------------------------




--------------------------------------- Iteration      1(  16)  ---------------------------------------


    POTLOK:  cpu time    0.2437: real time    1.0989
    SETDIJ:  cpu time    0.8981: real time    0.9389
     EDDAV:  cpu time   18.8290: real time   19.2317
       DOS:  cpu time    0.0059: real time    0.0748
    CHARGE:  cpu time    0.0684: real time    0.1177
    MIXING:  cpu time    0.0012: real time    0.0697
    --------------------------------------------
      LOOP:  cpu time   20.0464: real time   21.5439

 eigenvalue-minimisations  :   732
 total energy-change (2. order) : 0.1476526E-03  (-0.1148076E-03)
 number of electron     564.0000025 magnetization 
 augmentation part      143.8442419 magnetization 

 Free energy of the ion-electron system (eV)
  ---------------------------------------------------
  alpha Z        PSCENC =      1482.04539224
  Ewald energy   TEWEN  =    -31949.04658608
  -Hartree energ DENC   =    -16183.02465854
  -exchange      EXHF   =      1500.79322723
  -V(xc)+E(xc)   XCENC  =      -595.52923951
  PAW double counting   =    149761.17627964  -147873.19937302
  entropy T*S    EENTRO =        -0.00489994
  eigenvalues    EBANDS =     -3487.27637053
  atomic energy  EATOM  =     47138.37786884
  Solvation  Ediel_sol  =         0.00000000
  ---------------------------------------------------
  free energy    TOTEN  =      -205.68835966 eV

  energy without entropy =     -205.68345973  energy(sigma->0) =     -205.68590970
  exchange ACFDT corr.  =         0.00000000  see jH, gK, PRB 81, 115126


--------------------------------------------------------------------------------------------------------




--------------------------------------- Iteration      1(  17)  ---------------------------------------


    POTLOK:  cpu time    0.2440: real time    1.0908
    SETDIJ:  cpu time    0.9205: real time    1.0821
     EDDAV:  cpu time   18.1514: real time   18.4747
       DOS:  cpu time    0.0258: real time    0.1236
    CHARGE:  cpu time    0.0737: real time    0.1030
    MIXING:  cpu time    0.0012: real time    0.0282
    --------------------------------------------
      LOOP:  cpu time   19.4167: real time   20.9086

 eigenvalue-minimisations  :   732
 total energy-change (2. order) : 0.7217679E-04  (-0.3983236E-04)
 number of electron     564.0000025 magnetization 
 augmentation part      143.8430872 magnetization 

 Free energy of the ion-electron system (eV)
  ---------------------------------------------------
  alpha Z        PSCENC =      1482.04539224
  Ewald energy   TEWEN  =    -31949.04658608
  -Hartree energ DENC   =    -16183.09333444
  -exchange      EXHF   =      1500.78621832
  -V(xc)+E(xc)   XCENC  =      -595.51832416
  PAW double counting   =    149967.08455131  -148079.08324484
  entropy T*S    EENTRO =        -0.00498635
  eigenvalues    EBANDS =     -3487.23584233
  atomic energy  EATOM  =     47138.37786884
  Solvation  Ediel_sol  =         0.00000000
  ---------------------------------------------------
  free energy    TOTEN  =      -205.68828749 eV

  energy without entropy =     -205.68330114  energy(sigma->0) =     -205.68579431
  exchange ACFDT corr.  =         0.00000000  see jH, gK, PRB 81, 115126


--------------------------------------------------------------------------------------------------------




--------------------------------------- Iteration      1(  18)  ---------------------------------------


    POTLOK:  cpu time    0.2563: real time    1.2791
    SETDIJ:  cpu time    0.9300: real time    0.9535
     EDDAV:  cpu time   17.9160: real time   18.2599
       DOS:  cpu time    0.0026: real time    1.9737
    CHARGE:  cpu time    0.0771: real time    0.1490
    MIXING:  cpu time    0.0012: real time    0.0494
    --------------------------------------------
      LOOP:  cpu time   19.1834: real time   22.6461

 eigenvalue-minimisations  :   692
 total energy-change (2. order) : 0.8325782E-04  (-0.1179126E-04)
 number of electron     564.0000025 magnetization 
 augmentation part      143.8424743 magnetization 

 Free energy of the ion-electron system (eV)
  ---------------------------------------------------
  alpha Z        PSCENC =      1482.04539224
  Ewald energy   TEWEN  =    -31949.04658608
  -Hartree energ DENC   =    -16183.13260180
  -exchange      EXHF   =      1500.78268291
  -V(xc)+E(xc)   XCENC  =      -595.51164864
  PAW double counting   =    150090.67993183  -148202.66555920
  entropy T*S    EENTRO =        -0.00500083
  eigenvalues    EBANDS =     -3487.21268351
  atomic energy  EATOM  =     47138.37786884
  Solvation  Ediel_sol  =         0.00000000
  ---------------------------------------------------
  free energy    TOTEN  =      -205.68820423 eV

  energy without entropy =     -205.68320340  energy(sigma->0) =     -205.68570382
  exchange ACFDT corr.  =         0.00000000  see jH, gK, PRB 81, 115126


--------------------------------------------------------------------------------------------------------




--------------------------------------- Iteration      1(  19)  ---------------------------------------


    POTLOK:  cpu time    0.2483: real time    2.5875
    SETDIJ:  cpu time    0.9066: real time    0.9564
     EDDAV:  cpu time   17.4550: real time   17.6781
       DOS:  cpu time    0.0084: real time    0.1232
    CHARGE:  cpu time    0.0693: real time    0.1011
    MIXING:  cpu time    0.0013: real time    0.0241
    --------------------------------------------
      LOOP:  cpu time   18.6888: real time   21.5044

 eigenvalue-minimisations  :   660
 total energy-change (2. order) : 0.8731244E-05  (-0.1456558E-04)
 number of electron     564.0000025 magnetization 
 augmentation part      143.8419610 magnetization 

 Free energy of the ion-electron system (eV)
  ---------------------------------------------------
  alpha Z        PSCENC =      1482.04539224
  Ewald energy   TEWEN  =    -31949.04658608
  -Hartree energ DENC   =    -16183.16585258
  -exchange      EXHF   =      1500.78161802
  -V(xc)+E(xc)   XCENC  =      -595.50740496
  PAW double counting   =    150163.82168673  -148275.80079460
  entropy T*S    EENTRO =        -0.00497197
  eigenvalues    EBANDS =     -3487.18915115
  atomic energy  EATOM  =     47138.37786884
  Solvation  Ediel_sol  =         0.00000000
  ---------------------------------------------------
  free energy    TOTEN  =      -205.68819550 eV

  energy without entropy =     -205.68322353  energy(sigma->0) =     -205.68570952
  exchange ACFDT corr.  =         0.00000000  see jH, gK, PRB 81, 115126


--------------------------------------------------------------------------------------------------------




--------------------------------------- Iteration      1(  20)  ---------------------------------------


    POTLOK:  cpu time    0.2445: real time    1.4694
    SETDIJ:  cpu time    0.9337: real time    1.8041
     EDDAV:  cpu time   18.2705: real time   18.7191
       DOS:  cpu time    0.0011: real time    0.5904
    CHARGE:  cpu time    0.0689: real time    0.0932
    MIXING:  cpu time    0.0013: real time    0.0148
    --------------------------------------------
      LOOP:  cpu time   19.5200: real time   22.6361

 eigenvalue-minimisations  :   588
 total energy-change (2. order) :-0.4302731E-04  (-0.2066899E-04)
 number of electron     564.0000025 magnetization 
 augmentation part      143.8417060 magnetization 

 Free energy of the ion-electron system (eV)
  ---------------------------------------------------
  alpha Z        PSCENC =      1482.04539224
  Ewald energy   TEWEN  =    -31949.04658608
  -Hartree energ DENC   =    -16183.20068237
  -exchange      EXHF   =      1500.78162754
  -V(xc)+E(xc)   XCENC  =      -595.50470478
  PAW double counting   =    150207.17016167  -148319.14620441
  entropy T*S    EENTRO =        -0.00494878
  eigenvalues    EBANDS =     -3487.16016240
  atomic energy  EATOM  =     47138.37786884
  Solvation  Ediel_sol  =         0.00000000
  ---------------------------------------------------
  free energy    TOTEN  =      -205.68823853 eV

  energy without entropy =     -205.68328975  energy(sigma->0) =     -205.68576414
  exchange ACFDT corr.  =         0.00000000  see jH, gK, PRB 81, 115126


--------------------------------------------------------------------------------------------------------




--------------------------------------- Iteration      1(  21)  ---------------------------------------


    POTLOK:  cpu time    0.2496: real time    6.2969
    SETDIJ:  cpu time    0.9014: real time    0.9350
     EDDAV:  cpu time   16.9096: real time   17.1248
       DOS:  cpu time    0.0009: real time    0.1412
    CHARGE:  cpu time    0.0696: real time    0.1224
    MIXING:  cpu time    0.0013: real time    0.0426
    --------------------------------------------
      LOOP:  cpu time   18.1324: real time   24.7566

 eigenvalue-minimisations  :   540
 total energy-change (2. order) :-0.3608128E-04  (-0.2355145E-04)
 number of electron     564.0000025 magnetization 
 augmentation part      143.8415671 magnetization 

 Free energy of the ion-electron system (eV)
  ---------------------------------------------------
  alpha Z        PSCENC =      1482.04539224
  Ewald energy   TEWEN  =    -31949.04658608
  -Hartree energ DENC   =    -16183.23213315
  -exchange      EXHF   =      1500.78195130
  -V(xc)+E(xc)   XCENC  =      -595.50292778
  PAW double counting   =    150232.45915790  -148344.43376033
  entropy T*S    EENTRO =        -0.00495596
  eigenvalues    EBANDS =     -3487.13228158
  atomic energy  EATOM  =     47138.37786884
  Solvation  Ediel_sol  =         0.00000000
  ---------------------------------------------------
  free energy    TOTEN  =      -205.68827461 eV

  energy without entropy =     -205.68331865  energy(sigma->0) =     -205.68579663
  exchange ACFDT corr.  =         0.00000000  see jH, gK, PRB 81, 115126


--------------------------------------------------------------------------------------------------------




--------------------------------------- Iteration      1(  22)  ---------------------------------------


    POTLOK:  cpu time    0.2426: real time    2.5680
    SETDIJ:  cpu time    0.9130: real time    0.9678
     EDDAV:  cpu time   17.7046: real time   17.8799
       DOS:  cpu time    0.0010: real time    0.7201
    CHARGE:  cpu time    0.0663: real time    0.5695
    MIXING:  cpu time    0.0012: real time    0.0340
    --------------------------------------------
      LOOP:  cpu time   18.9286: real time   22.7071

 eigenvalue-minimisations  :   556
 total energy-change (2. order) :-0.2214112E-04  (-0.2057977E-04)
 number of electron     564.0000025 magnetization 
 augmentation part      143.8414017 magnetization 

 Free energy of the ion-electron system (eV)
  ---------------------------------------------------
  alpha Z        PSCENC =      1482.04539224
  Ewald energy   TEWEN  =    -31949.04658608
  -Hartree energ DENC   =    -16183.25456481
  -exchange      EXHF   =      1500.78184727
  -V(xc)+E(xc)   XCENC  =      -595.50175689
  PAW double counting   =    150247.17906450  -148359.15291841
  entropy T*S    EENTRO =        -0.00499078
  eigenvalues    EBANDS =     -3487.11165264
  atomic energy  EATOM  =     47138.37786884
  Solvation  Ediel_sol  =         0.00000000
  ---------------------------------------------------
  free energy    TOTEN  =      -205.68829675 eV

  energy without entropy =     -205.68330597  energy(sigma->0) =     -205.68580136
  exchange ACFDT corr.  =         0.00000000  see jH, gK, PRB 81, 115126


--------------------------------------------------------------------------------------------------------




--------------------------------------- Iteration      1(  23)  ---------------------------------------


    POTLOK:  cpu time    0.2429: real time    2.4230
    SETDIJ:  cpu time    0.9109: real time    0.9442
     EDDAV:  cpu time   17.6595: real time   18.0020
       DOS:  cpu time    0.0010: real time    0.1722
    CHARGE:  cpu time    0.0684: real time    0.1083
    MIXING:  cpu time    0.0012: real time    0.0314
    --------------------------------------------
      LOOP:  cpu time   18.8840: real time   21.7025

 eigenvalue-minimisations  :   572
 total energy-change (2. order) :-0.1266973E-04  (-0.1341196E-04)
 number of electron     564.0000025 magnetization 
 augmentation part      143.8412293 magnetization 

 Free energy of the ion-electron system (eV)
  ---------------------------------------------------
  alpha Z        PSCENC =      1482.04539224
  Ewald energy   TEWEN  =    -31949.04658608
  -Hartree energ DENC   =    -16183.26601924
  -exchange      EXHF   =      1500.78136805
  -V(xc)+E(xc)   XCENC  =      -595.50103438
  PAW double counting   =    150255.91820149  -148367.89164107
  entropy T*S    EENTRO =        -0.00503082
  eigenvalues    EBANDS =     -3487.10082846
  atomic energy  EATOM  =     47138.37786884
  Solvation  Ediel_sol  =         0.00000000
  ---------------------------------------------------
  free energy    TOTEN  =      -205.68830942 eV

  energy without entropy =     -205.68327859  energy(sigma->0) =     -205.68579401
  exchange ACFDT corr.  =         0.00000000  see jH, gK, PRB 81, 115126


--------------------------------------------------------------------------------------------------------




--------------------------------------- Iteration      1(  24)  ---------------------------------------


    POTLOK:  cpu time    0.2439: real time    2.0119
    SETDIJ:  cpu time    0.9105: real time    0.9532
     EDDAV:  cpu time   18.2711: real time   18.4581
       DOS:  cpu time    0.0010: real time    0.3926
    CHARGE:  cpu time    0.0653: real time    0.1488
    MIXING:  cpu time    0.0013: real time    0.1417
[...]
     0.000000000  0.000000000 13.086768000     0.000000000  0.000000000  0.076413061

  length of vectors
    13.086768000 13.086768000 13.086768000     0.076413061  0.076413061  0.076413061


 FORCES acting on ions
    electron-ion (+dipol)            ewald-force                    non-local-force                 convergence-correction
 -----------------------------------------------------------------------------------------------
   0.634E-01 0.183E+00 0.173E+01   -.590E-01 -.178E+00 -.171E+01   0.183E-01 -.440E-01 -.384E-01   0.404E-02 0.974E-03 0.435E-02
   -.276E+00 -.142E+01 -.266E+00   0.257E+00 0.140E+01 0.256E+00   0.508E-01 -.308E-01 0.696E-02   0.372E-02 0.260E-02 -.704E-03
   0.101E+00 0.296E+00 -.277E+00   -.104E+00 -.267E+00 0.242E+00   0.305E-01 -.592E-01 0.425E-01   -.430E-02 -.672E-02 0.224E-02
   0.102E+00 -.325E+00 -.534E+00   -.114E+00 0.314E+00 0.530E+00   0.399E-01 -.278E-01 -.909E-02   0.151E-02 0.358E-02 -.365E-02
   0.490E+00 0.136E+01 -.224E+00   -.477E+00 -.132E+01 0.198E+00   -.167E-03 -.840E-01 0.259E-01   0.170E-02 0.143E-02 0.277E-02
   0.146E+00 -.546E+00 -.171E+01   -.163E+00 0.555E+00 0.163E+01   0.402E-01 -.571E-01 0.613E-01   0.112E-02 -.685E-03 -.341E-03
   0.288E+00 -.508E+00 0.407E+00   -.278E+00 0.562E+00 -.436E+00   0.258E-01 -.921E-01 0.220E-01   -.124E-03 -.354E-03 -.307E-04
   -.112E+02 0.300E+02 0.292E+02   0.102E+02 -.309E+02 -.301E+02   0.912E+00 0.857E+00 0.905E+00   0.594E-02 0.450E-02 0.159E-02
   0.128E+02 0.275E+02 -.282E+02   -.118E+02 -.285E+02 0.292E+02   -.920E+00 0.992E+00 -.921E+00   -.326E-02 0.662E-02 -.757E-02
   0.825E+01 -.301E+02 0.302E+02   -.745E+01 0.310E+02 -.311E+02   -.773E+00 -.827E+00 0.845E+00   0.147E-02 -.274E-02 0.106E-02
   -.111E+02 -.286E+02 -.296E+02   0.101E+02 0.296E+02 0.305E+02   0.906E+00 -.929E+00 -.878E+00   0.881E-03 0.410E-02 -.212E-02
   0.448E+01 0.729E+01 0.757E+01   -.456E+01 -.743E+01 -.775E+01   0.762E-01 0.116E+00 0.169E+00   -.355E-02 -.153E-02 0.915E-04
   -.533E+01 0.834E+01 -.799E+01   0.536E+01 -.843E+01 0.807E+01   -.167E-01 0.846E-01 -.708E-01   -.350E-02 -.367E-02 0.354E-03
   -.313E+01 -.695E+01 0.705E+01   0.319E+01 0.715E+01 -.724E+01   -.290E-01 -.198E+00 0.139E+00   -.332E-03 0.103E-02 0.234E-03
   0.510E+01 -.756E+01 -.693E+01   -.514E+01 0.772E+01 0.702E+01   0.669E-01 -.142E+00 -.442E-01   -.115E-02 0.265E-02 -.106E-02
   0.293E+02 -.472E+01 0.323E+02   -.301E+02 0.426E+01 -.331E+02   0.751E+00 0.438E+00 0.753E+00   0.294E-02 -.670E-03 -.208E-02
   0.268E+02 0.944E+01 -.309E+02   -.278E+02 -.873E+01 0.317E+02   0.922E+00 -.659E+00 -.828E+00   0.218E-02 -.452E-02 0.129E-02
   0.491E+01 0.415E+01 0.658E+01   -.516E+01 -.420E+01 -.674E+01   0.249E+00 0.876E-02 0.123E+00   -.232E-02 -.231E-02 0.412E-03
   0.593E+01 -.714E+01 -.725E+01   -.610E+01 0.717E+01 0.729E+01   0.213E+00 -.518E-01 -.239E-01   -.786E-03 0.470E-02 0.203E-02
   -.290E+02 0.779E+01 0.319E+02   0.299E+02 -.711E+01 -.327E+02   -.853E+00 -.635E+00 0.820E+00   -.186E-02 -.281E-02 -.303E-02
   -.281E+02 -.734E+01 -.321E+02   0.290E+02 0.681E+01 0.328E+02   -.830E+00 0.499E+00 -.711E+00   0.308E-02 -.202E-02 0.241E-04
   -.504E+01 -.517E+01 0.660E+01   0.526E+01 0.527E+01 -.674E+01   -.180E+00 -.140E+00 0.107E+00   -.412E-02 0.371E-02 0.286E-02
   -.567E+01 0.585E+01 -.691E+01   0.587E+01 -.587E+01 0.697E+01   -.166E+00 -.112E-01 -.396E-01   0.212E-02 -.160E-02 -.187E-02
   0.276E+02 0.319E+02 -.977E+01   -.286E+02 -.328E+02 0.905E+01   0.964E+00 0.903E+00 0.677E+00   -.110E-02 -.652E-02 -.205E-02
   0.584E+01 0.661E+01 0.650E+01   -.603E+01 -.668E+01 -.654E+01   0.207E+00 0.410E-01 0.353E-01   -.288E-02 -.573E-02 -.632E-02
   0.294E+02 -.331E+02 0.449E+01   -.302E+02 0.338E+02 -.407E+01   0.758E+00 -.679E+00 -.394E+00   -.667E-03 0.368E-03 0.456E-03
   0.538E+01 -.689E+01 -.458E+01   -.559E+01 0.702E+01 0.461E+01   0.210E+00 -.183E+00 -.194E-01   0.386E-03 0.790E-03 -.205E-02
   -.293E+02 0.327E+02 0.632E+01   0.301E+02 -.334E+02 -.582E+01   -.798E+00 0.729E+00 -.467E+00   -.268E-02 -.422E-02 -.191E-02
   -.573E+01 0.731E+01 -.580E+01   0.593E+01 -.738E+01 0.582E+01   -.185E+00 0.448E-01 -.207E-01   -.399E-03 0.609E-02 0.547E-02
   -.287E+02 -.316E+02 -.844E+01   0.296E+02 0.325E+02 0.775E+01   -.902E+00 -.825E+00 0.651E+00   -.243E-02 0.188E-02 0.374E-02
   -.481E+01 -.623E+01 0.535E+01   0.501E+01 0.637E+01 -.542E+01   -.157E+00 -.170E+00 0.602E-01   0.371E-02 -.258E-02 -.596E-04
   0.290E+01 -.746E-01 0.140E+02   -.301E+01 0.213E+00 -.144E+02   0.101E+00 -.133E+00 0.363E+00   0.268E-02 0.750E-03 0.316E-02
   0.666E+02 0.676E+02 -.683E+02   -.700E+02 -.718E+02 0.724E+02   0.316E+01 0.385E+01 -.377E+01   0.115E-02 -.216E-02 0.270E-02
   0.600E+01 -.248E+01 0.337E+01   -.611E+01 0.254E+01 -.356E+01   0.109E+00 -.643E-01 0.173E+00   -.924E-03 0.821E-03 -.496E-03
   0.306E+01 -.135E+02 0.329E+00   -.320E+01 0.139E+02 -.495E+00   0.128E+00 -.376E+00 0.156E+00   0.103E-02 -.753E-03 0.814E-03
   -.219E+01 0.541E+01 0.344E+01   0.227E+01 -.565E+01 -.369E+01   -.754E-01 0.227E+00 0.231E+00   -.239E-02 -.621E-04 0.121E-02
   -.136E+02 0.267E+01 -.173E+01   0.140E+02 -.274E+01 0.173E+01   -.384E+00 0.676E-01 -.394E-02   -.184E-02 -.242E-02 0.184E-02
   -.191E+01 -.312E+01 0.357E+01   0.195E+01 0.318E+01 -.370E+01   -.284E-01 -.546E-01 0.123E+00   0.167E-03 0.967E-03 -.135E-04
   -.245E+01 -.337E+01 -.604E+01   0.260E+01 0.365E+01 0.629E+01   -.138E+00 -.254E+00 -.230E+00   0.349E-03 -.208E-02 0.355E-03
   0.168E+01 0.147E+02 0.176E+00   -.174E+01 -.152E+02 -.133E+00   0.524E-01 0.487E+00 -.449E-01   0.134E-02 0.830E-03 0.110E-02
   0.603E+01 0.147E+01 -.174E+01   -.601E+01 -.161E+01 0.191E+01   -.454E-02 0.132E+00 -.151E+00   -.656E-02 -.387E-04 -.572E-03
   0.637E+02 -.656E+02 0.651E+02   -.664E+02 0.691E+02 -.686E+02   0.251E+01 -.323E+01 0.323E+01   0.113E-02 0.589E-03 -.575E-03
   0.692E+00 0.104E+01 -.131E+02   -.708E+00 -.118E+01 0.136E+02   0.166E-01 0.124E+00 -.436E+00   0.867E-03 0.152E-02 0.169E-02
   -.204E+01 0.387E+01 0.582E+01   0.217E+01 -.419E+01 -.606E+01   -.113E+00 0.293E+00 0.215E+00   -.227E-02 0.335E-03 0.167E-03
   -.293E+01 0.275E+01 -.270E+01   0.295E+01 -.284E+01 0.281E+01   -.209E-01 0.858E-01 -.991E-01   0.252E-02 -.531E-03 -.236E-02
   -.145E+02 -.262E+01 0.220E+01   0.150E+02 0.274E+01 -.228E+01   -.459E+00 -.109E+00 0.681E-01   -.794E-03 0.197E-03 0.643E-04
   -.366E+01 -.667E+01 -.335E+01   0.393E+01 0.695E+01 0.361E+01   -.250E+00 -.266E+00 -.240E+00   0.493E-03 0.256E-02 -.603E-03
   0.136E+02 0.275E+01 0.358E+01   -.140E+02 -.288E+01 -.377E+01   0.354E+00 0.112E+00 0.176E+00   -.912E-03 -.463E-03 0.674E-03
   0.165E+01 0.726E+01 -.334E+01   -.180E+01 -.759E+01 0.360E+01   0.147E+00 0.306E+00 -.238E+00   0.718E-03 -.118E-02 0.938E-03
   0.294E+01 -.463E+01 0.637E+01   -.306E+01 0.492E+01 -.667E+01   0.114E+00 -.269E+00 0.283E+00   -.290E-04 0.104E-02 0.877E-04
   0.951E+00 -.394E+01 -.243E+01   -.828E+00 0.406E+01 0.255E+01   -.112E+00 -.108E+00 -.109E+00   -.958E-03 -.963E-03 -.119E-02
   -.650E+02 0.661E+02 0.666E+02   0.679E+02 -.698E+02 -.704E+02   -.276E+01 0.335E+01 0.351E+01   -.781E-03 -.265E-02 -.266E-02
   -.297E+01 -.143E+01 -.130E+02   0.318E+01 0.160E+01 0.134E+02   -.191E+00 -.155E+00 -.395E+00   0.119E-02 0.122E-02 0.200E-02
   -.256E+01 -.137E+02 0.807E+00   0.264E+01 0.141E+02 -.788E+00   -.692E-01 -.374E+00 -.201E-01   0.256E-02 0.173E-02 0.283E-03
   -.616E+01 -.151E+01 -.169E+01   0.627E+01 0.162E+01 0.182E+01   -.982E-01 -.109E+00 -.117E+00   0.644E-03 -.177E-02 -.269E-02
   0.294E+01 0.105E+01 0.344E+01   -.301E+01 -.106E+01 -.352E+01   0.660E-01 0.870E-02 0.812E-01   -.345E-03 -.408E-03 -.727E-03
   0.315E+01 0.438E+01 -.737E+01   -.339E+01 -.471E+01 0.769E+01   0.218E+00 0.313E+00 -.291E+00   0.474E-03 -.111E-02 0.910E-03
   0.391E+01 -.529E+01 0.434E+01   -.409E+01 0.544E+01 -.461E+01   0.172E+00 -.148E+00 0.254E+00   -.581E-03 -.293E-03 -.677E-03
   0.147E+02 -.312E+01 -.211E+01   -.152E+02 0.331E+01 0.213E+01   0.438E+00 -.173E+00 -.156E-01   -.181E-02 0.359E-02 -.472E-03
   -.530E+01 0.119E+01 0.994E+00   0.534E+01 -.126E+01 -.107E+01   -.413E-01 0.512E-01 0.684E-01   0.231E-02 0.205E-02 0.536E-02
   -.232E+01 0.143E+02 0.824E+00   0.242E+01 -.148E+02 -.940E+00   -.974E-01 0.455E+00 0.111E+00   0.180E-02 0.558E-03 -.319E-02
   -.197E+01 -.102E+01 0.139E+02   0.199E+01 0.983E+00 -.143E+02   -.160E-01 0.350E-01 0.375E+00   -.537E-04 -.230E-02 0.871E-03
   -.647E+02 -.668E+02 -.674E+02   0.678E+02 0.708E+02 0.712E+02   -.286E+01 -.367E+01 -.356E+01   0.226E-02 0.405E-02 -.808E-03
 -----------------------------------------------------------------------------------------------
   -.460E-02 0.189E+00 -.682E+00   -.426E-13 -.568E-13 0.000E+00   0.495E+00 -.733E+00 0.680E+00   0.278E-02 -.277E-04 0.133E-02
 
 
 POSITION                                       TOTAL-FORCE (eV/Angst)
 -----------------------------------------------------------------------------------
      0.02605     13.05182      6.53828        -0.001327     -0.000131      0.000260
      0.02132      6.51278     -0.00318         0.000980     -0.000065     -0.000125
      0.02649      6.51068      6.55422        -0.002404     -0.001859     -0.000845
      6.57431     13.05687     13.07909         0.000155     -0.000321     -0.002381
      6.55713     13.04431      6.54295         0.000380      0.000499      0.001167
      6.55839      6.51130     13.08013        -0.000100      0.000644     -0.000327
      6.56908      6.51420      6.54077        -0.001387     -0.000413      0.000048
     13.01312      3.19845      3.22446        -0.000761      0.000365     -0.002469
      0.13128      3.18909      9.88105        -0.000854      0.002814     -0.002167
      0.08490      9.84792      3.21389        -0.000834     -0.000628      0.000580
     13.00513      9.85551      9.87368         0.000537     -0.001698     -0.000528
      6.53572      3.22258      3.25517        -0.000648     -0.000920     -0.000145
      6.56513      3.22583      9.83358        -0.000318     -0.000450     -0.000394
      6.57511      9.80925      3.24180        -0.000400     -0.000288     -0.000226
      6.56296      9.82810      9.84232        -0.000528      0.000197     -0.000667
      3.21049     13.01548      3.22135        -0.001218     -0.000595      0.000649
      3.19384      0.04251      9.86606         0.000818     -0.001104      0.000702
      3.27940      6.51624      3.23944         0.000362     -0.001388      0.000147
      3.30440      6.53290      9.83175         0.000849      0.001447      0.000473
      9.90605      0.03983      3.22300         0.000554     -0.000608     -0.000447
      9.93404     13.01531      9.86669        -0.001082      0.000016     -0.001612
      9.83707      6.51236      3.25201        -0.002549      0.001472     -0.000647
      9.83786      6.50929      9.83272        -0.000650     -0.000105      0.001398
      3.19725      3.16924     13.02146        -0.000371     -0.001113     -0.000532
      3.29746      3.23554      6.53943         0.000497     -0.001254     -0.003497
      3.20360      9.85490      0.03759        -0.001077     -0.000318      0.000592
      3.28181      9.77835      6.54678        -0.000030     -0.000586      0.000008
      9.90793      3.18978      0.05317        -0.000131     -0.000238      0.000169
      9.83440      3.22725      6.55110        -0.000473      0.000922      0.000232
      9.91213      9.84742     13.02819        -0.002263     -0.000713      0.003719
      9.84004      9.78838      6.53633        -0.000051     -0.000452      0.001324
      1.65154      1.62166      4.89850        -0.002924     -0.001240      0.004116
      1.51358      1.46756     11.58114         0.003331      0.003908     -0.004778
      1.64953      8.14898      4.89685         0.002122     -0.002260      0.002414
      1.64498      8.17000     11.44220        -0.000945      0.001795      0.001194
      8.19111      1.59960      4.90036        -0.001354      0.001005      0.002382
      8.23369      1.60121     11.45360        -0.004055     -0.000641     -0.003750
      8.19169      8.15432      4.89700         0.004364      0.002267      0.000833
      8.20159      8.16822     11.46251        -0.003237     -0.004368     -0.001476
      1.64746      4.85858      1.63599        -0.005854     -0.004925     -0.002866
      1.68112      4.88416      8.18976         0.001702      0.005595      0.006749
      1.53175     11.53429      1.53590         0.003695      0.001183      0.000125
      1.65014     11.41068      8.19259         0.001996      0.000304     -0.005700
      8.19384      4.85805      1.63195        -0.000257     -0.001974     -0.002672
      8.19196      4.87364      8.19027         0.003311      0.001748     -0.002154
      8.22889     11.43741      1.63186        -0.005573     -0.000685     -0.005538
      8.21860     11.43562      8.19509         0.001685     -0.000629      0.000307
      4.90257      1.58930      1.62287         0.004893      0.001072     -0.001250
      4.92183      1.59588      8.19351         0.005840      0.001725      0.005983
      4.91405      8.17701      1.61993         0.000688      0.001074     -0.001971
      4.94861      8.16413      8.19064        -0.000834      0.001648      0.000045
     11.58262      1.50402      1.54191        -0.002984      0.001155      0.000992
     11.49225      1.61984      8.19243         0.001751      0.000050      0.004170
     11.46853      8.16141      1.63873        -0.000668      0.002554     -0.001780
     11.46244      8.14880      8.18827         0.001228      0.000507      0.000451
      4.92428      4.88901      4.89849         0.000114      0.001175      0.001866
      4.91206      4.85755     11.46560        -0.000256      0.009067      0.003016
      4.91282     11.41821      4.89309         0.002247     -0.003829      0.000591
      4.89425     11.44637     11.45676         0.004308      0.002102      0.000251
     11.45829      4.88353      4.91583         0.002855     -0.003201      0.006771
     11.47452      4.85962     11.45073        -0.001311     -0.001545     -0.003541
     11.46396     11.42023      4.89646        -0.002838     -0.002442      0.001298
     11.59075     11.54061     11.57867         0.001283     -0.005325     -0.000536
 -----------------------------------------------------------------------------------
    total drift:                                0.097779     -0.089379     -0.000849


--------------------------------------------------------------------------------------------------------



  FREE ENERGIE OF THE ION-ELECTRON SYSTEM (eV)
  ---------------------------------------------------
  free  energy   TOTEN  =      -205.69143924 eV

  energy  without entropy=     -205.68635206  energy(sigma->0) =     -205.68889565
 
 d Force = 0.2238386E-04[ 0.477E-05, 0.400E-04]  d Energy = 0.2277485E-04-0.391E-06
 d Force =-0.8988771E-01[-0.900E-01,-0.898E-01]  d Ewald  =-0.8988771E-01 0.575E-09


--------------------------------------------------------------------------------------------------------


    POTLOK:  cpu time    1.1555: real time    1.1562


--------------------------------------------------------------------------------------------------------


 Conjugate gradient step on ions:
 trial-energy change:   -0.000023  1 .order   -0.000022   -0.000040   -0.000005
  (g-gl).g = 0.216E-04      g.g   = 0.261E-04  gl.gl    = 0.327E-04
 g(Force)  = 0.261E-04   g(Stress)= 0.000E+00 ortho     = 0.343E-05
 gamma     =   0.66110
 trial     =   1.41215
 opt step  =   1.60325  (harmonic =   1.60325) maximal distance =0.00061110
 next E    =  -205.691439   (d E  =  -0.00002)


--------------------------------------------------------------------------------------------------------


  
 reached required accuracy - stopping structural energy minimisation
     LOOP+:  cpu time  101.3845: real time  102.8138
    4ORBIT:  cpu time    0.0000: real time    0.0000
 


 total charge     
 
# of ion       s       p       d       tot
------------------------------------------
    1        0.419   0.293   9.589  10.302
    2        0.419   0.293   9.589  10.302
    3        0.420   0.292   9.590  10.303
    4        0.420   0.295   9.589  10.304
    5        0.422   0.291   9.588  10.302
    6        0.422   0.291   9.588  10.301
    7        0.421   0.295   9.589  10.305
    8        0.423   0.293   9.588  10.304
    9        0.423   0.290   9.588  10.301
   10        0.423   0.293   9.588  10.303
   11        0.423   0.292   9.588  10.303
   12        0.421   0.294   9.589  10.304
   13        0.421   0.294   9.589  10.304
   14        0.421   0.294   9.589  10.304
   15        0.421   0.294   9.589  10.304
   16        0.423   0.291   9.588  10.301
   17        0.424   0.290   9.588  10.302
   18        0.421   0.294   9.589  10.304
   19        0.421   0.294   9.589  10.305
   20        0.424   0.293   9.588  10.304
   21        0.423   0.290   9.588  10.301
   22        0.421   0.294   9.589  10.304
   23        0.421   0.294   9.589  10.304
   24        0.423   0.289   9.588  10.301
   25        0.421   0.294   9.589  10.305
   26        0.423   0.290   9.588  10.301
   27        0.420   0.293   9.589  10.303
   28        0.423   0.291   9.588  10.302
   29        0.420   0.293   9.589  10.303
   30        0.424   0.292   9.588  10.303
   31        0.421   0.294   9.589  10.304
   32        1.290   2.292   0.017   3.599
   33        1.311   2.230   0.018   3.559
   34        1.291   2.291   0.017   3.599
   35        1.290   2.292   0.017   3.599
   36        1.292   2.286   0.017   3.595
   37        1.291   2.289   0.017   3.597
   38        1.291   2.292   0.017   3.600
   39        1.292   2.286   0.017   3.595
   40        1.290   2.293   0.017   3.600
   41        1.290   2.294   0.017   3.601
   42        1.310   2.222   0.018   3.550
   43        1.290   2.292   0.017   3.599
   44        1.292   2.284   0.017   3.594
   45        1.291   2.293   0.017   3.601
   46        1.290   2.291   0.017   3.598
   47        1.292   2.285   0.017   3.594
   48        1.291   2.289   0.017   3.597
   49        1.291   2.287   0.017   3.596
   50        1.292   2.283   0.017   3.592
   51        1.291   2.292   0.017   3.600
   52        1.309   2.228   0.018   3.555
   53        1.290   2.291   0.017   3.598
   54        1.290   2.293   0.017   3.600
   55        1.290   2.293   0.018   3.601
   56        1.291   2.292   0.017   3.600
   57        1.291   2.287   0.017   3.596
   58        1.292   2.283   0.017   3.592
   59        1.291   2.290   0.017   3.597
   60        1.290   2.293   0.018   3.601
   61        1.290   2.291   0.017   3.599
   62        1.290   2.293   0.017   3.600
   63        1.310   2.228   0.018   3.556
--------------------------------------------------
tot         54.451  82.098 297.803 434.352
 

 total amount of memory used by VASP MPI-rank0    77582. kBytes
=======================================================================

   base      :      30000. kBytes
   nonlr-proj:       3329. kBytes
   fftplans  :       6877. kBytes
   grid      :      11280. kBytes
   one-center:         46. kBytes
   HF        :        129. kBytes
   wavefun   :       2812. kBytes
   fock_wrk  :      23109. kBytes
 
  
  
 General timing and accounting informations for this job:
 ========================================================
  
                  Total CPU time used (sec):     4798.394
                            User time (sec):     4766.259
                          System time (sec):       32.135
                         Elapsed time (sec):     5018.594
  
                   Maximum memory used (kb):      301548.
                   Average memory used (kb):           0.
  
                          Minor page faults:       523864
                          Major page faults:            2
                 Voluntary context switches:        38264
