 vasp.6.1.1 19Jun20 (build Oct 26 2020 17:25:13) gamma-only                     
  
 executed on             LinuxIFC date 2021.02.18  01:12:32
 running on   48 total cores
 distrk:  each k-point on   48 cores,    1 groups
 distr:  one band on NCORE=  12 cores,    4 groups


--------------------------------------------------------------------------------------------------------


 INCAR:
 POTCAR:    PAW_PBE Cd 06Sep2000                  
 POTCAR:    PAW_PBE Te 08Apr2002                  
 POTCAR:    PAW_PBE Cd 06Sep2000                  
   VRHFIN =Cd : s2 d10                                                                              
   LEXCH  = PE                                                                                      
   EATOM  =  1293.1815 eV,   95.0462 Ry                                                             
                                                                                                    
   TITEL  = PAW_PBE Cd 06Sep2000                                                                    
   LULTRA =        F    use ultrasoft PP ?                                                          
   IUNSCR =        1    unscreen: 0-lin 1-nonlin 2-no                                               
   RPACOR =    2.000    partial core radius                                                         
   POMASS =  112.411; ZVAL   =   12.000    mass and valenz                                          
   RCORE  =    2.300    outmost cutoff radius                                                       
   RWIGS  =    2.980; RWIGS  =    1.577    wigner-seitz radius (au A)                               
   ENMAX  =  274.336; ENMIN  =  205.752 eV                                                          
   RCLOC  =    2.054    cutoff for local pot                                                        
   LCOR   =        T    correct aug charges                                                         
   LPAW   =        T    paw PP                                                                      
   EAUG   =  456.106                                                                                
   DEXC   =    0.000                                                                                
   RMAX   =    2.358    core radius for proj-oper                                                   
   RAUG   =    1.300    factor for augmentation sphere                                              
   RDEP   =    2.450    radius for radial grids                                                     
   RDEPT  =    1.955    core radius for aug-charge                                                  
                                                                                                    
   Atomic configuration                                                                             
   12 entries                                                                                       
     n  l   j            E        occ.                                                              
     1  0  0.50    -26519.7817   2.0000                                                             
     2  0  0.50     -3936.9612   2.0000                                                             
     2  1  1.50     -3532.2230   6.0000                                                             
     3  0  0.50      -733.7908   2.0000                                                             
     3  1  1.50      -601.0792   6.0000                                                             
     3  2  2.50      -393.5307  10.0000                                                             
     4  0  0.50      -105.8977   2.0000                                                             
     4  1  1.50       -66.9488   6.0000                                                             
     4  2  2.50       -11.7331  10.0000                                                             
     5  0  0.50        -5.6592   2.0000                                                             
     5  1  0.50        -1.3606   0.0000                                                             
     4  3  2.50        -1.3606   0.0000                                                             
   Description                                                                                      
     l       E           TYP  RCUT    TYP  RCUT                                                     
     2    -11.7331479     23  2.300                                                                 
     2    -13.0937305     23  2.300                                                                 
     0     -5.6591502     23  2.300                                                                 
     0     -1.5561433     23  2.300                                                                 
     1     -2.7211652     23  2.300                                                                 
     1      8.3548275     23  2.300                                                                 
  local pseudopotential read in
  partial core-charges read in
  partial kinetic energy density read in
  atomic valenz-charges read in
  non local Contribution for L=           2  read in
    real space projection operators read in
  non local Contribution for L=           2  read in
    real space projection operators read in
  non local Contribution for L=           0  read in
    real space projection operators read in
  non local Contribution for L=           0  read in
    real space projection operators read in
  non local Contribution for L=           1  read in
    real space projection operators read in
  non local Contribution for L=           1  read in
    real space projection operators read in
    PAW grid and wavefunctions read in
 
   number of l-projection  operators is LMAX  =           6
   number of lm-projection operators is LMMAX =          18
 
 POTCAR:    PAW_PBE Te 08Apr2002                  
   VRHFIN =Te: s2p4                                                                                 
   LEXCH  = PE                                                                                      
   EATOM  =   223.2721 eV,   16.4100 Ry                                                             
                                                                                                    
   TITEL  = PAW_PBE Te 08Apr2002                                                                    
   LULTRA =        F    use ultrasoft PP ?                                                          
   IUNSCR =        1    unscreen: 0-lin 1-nonlin 2-no                                               
   RPACOR =    2.200    partial core radius                                                         
   POMASS =  127.600; ZVAL   =    6.000    mass and valenz                                          
   RCORE  =    2.300    outmost cutoff radius                                                       
   RWIGS  =    2.900; RWIGS  =    1.535    wigner-seitz radius (au A)                               
   ENMAX  =  174.982; ENMIN  =  131.236 eV                                                          
   ICORE  =        3    local potential                                                             
   LCOR   =        T    correct aug charges                                                         
   LPAW   =        T    paw PP                                                                      
   EAUG   =  368.792                                                                                
   DEXC   =    0.000                                                                                
   RMAX   =    2.345    core radius for proj-oper                                                   
   RAUG   =    1.300    factor for augmentation sphere                                              
   RDEP   =    2.397    radius for radial grids                                                     
   RDEPT  =    2.174    core radius for aug-charge                                                  
                                                                                                    
   Atomic configuration                                                                             
   13 entries                                                                                       
     n  l   j            E        occ.                                                              
     1  0  0.50    -31621.2075   2.0000                                                             
     2  0  0.50     -4848.7941   2.0000                                                             
     2  1  1.50     -4352.1960   6.0000                                                             
     3  0  0.50      -964.9612   2.0000                                                             
     3  1  1.50      -803.6179   6.0000                                                             
     3  2  2.50      -559.8710  10.0000                                                             
     4  0  0.50      -164.3522   2.0000                                                             
     4  1  1.50      -114.3756   6.0000                                                             
     4  2  2.50       -41.6483  10.0000                                                             
     5  0  0.50       -15.1072   2.0000                                                             
     5  1  0.50        -5.9526   4.0000                                                             
     5  2  1.50        -5.4423   0.0000                                                             
     4  3  2.50        -5.4423   0.0000                                                             
   Description                                                                                      
     l       E           TYP  RCUT    TYP  RCUT                                                     
     0    -15.1072389     23  2.300                                                                 
     0    -16.4678215     23  2.300                                                                 
     1     -5.9526306     23  2.300                                                                 
     1     -2.4873968     23  2.300                                                                 
     2     -5.4423304     23  2.300                                                                 
     3     -1.3605826     23  2.300                                                                 
  local pseudopotential read in
  partial core-charges read in
  partial kinetic energy density read in
  atomic valenz-charges read in
  non local Contribution for L=           0  read in
    real space projection operators read in
  non local Contribution for L=           0  read in
    real space projection operators read in
  non local Contribution for L=           1  read in
    real space projection operators read in
  non local Contribution for L=           1  read in
    real space projection operators read in
  non local Contribution for L=           2  read in
    real space projection operators read in
    PAW grid and wavefunctions read in
 
   number of l-projection  operators is LMAX  =           5
   number of lm-projection operators is LMMAX =          13
 
 Optimization of the real space projectors (new method)

 maximal supplied QI-value         = 16.25
 optimisation between [QCUT,QGAM] = [ 10.73, 21.61] = [ 32.22,130.83] Ry 
 Optimized for a Real-space Cutoff    1.34 Angstroem

   l    n(q)    QCUT    max X(q) W(low)/X(q) W(high)/X(q)  e(spline) 
   2      8    10.726    73.106    0.62E-03    0.58E-03    0.13E-06
   2      8    10.726    71.731    0.63E-03    0.59E-03    0.13E-06
   0      9    10.726   146.509    0.37E-03    0.31E-03    0.93E-07
   0      9    10.726    95.017    0.35E-03    0.30E-03    0.90E-07
   1      8    10.726    36.165    0.40E-03    0.62E-04    0.20E-06
   1      8    10.726    31.530    0.37E-03    0.46E-04    0.19E-06
 Optimization of the real space projectors (new method)

 maximal supplied QI-value         = 16.25
 optimisation between [QCUT,QGAM] = [ 10.73, 21.61] = [ 32.22,130.83] Ry 
 Optimized for a Real-space Cutoff    1.26 Angstroem

   l    n(q)    QCUT    max X(q) W(low)/X(q) W(high)/X(q)  e(spline) 
   0      8    10.726   224.858    0.42E-03    0.29E-03    0.13E-06
   0      8    10.726   205.313    0.42E-03    0.29E-03    0.14E-06
   1      8    10.726   119.695    0.28E-03    0.65E-03    0.18E-06
   1      8    10.726    84.282    0.28E-03    0.64E-03    0.18E-06
   2      7    10.726     5.599    0.26E-03    0.18E-03    0.37E-07
  PAW_PBE Cd 06Sep2000                  :
 energy of atom  1       EATOM=-1293.1815
 kinetic energy error for atom=    0.0084 (will be added to EATOM!!)
  PAW_PBE Te 08Apr2002                  :
 energy of atom  2       EATOM= -223.2721
 kinetic energy error for atom=    0.0008 (will be added to EATOM!!)
 
 
 POSCAR: only_rattled_vac_1_Cd[0. 0. 0.]_KV=-dNEL
  positions in direct lattice
  No initial velocities read in
 exchange correlation table for  LEXCH =        8
   RHO(1)=    0.500       N(1)  =     2000
   RHO(2)=  100.500       N(2)  =     4000
 


--------------------------------------------------------------------------------------------------------


 ion  position               nearest neighbor table
   1  0.009  0.997  0.512-  53 2.50  43 2.62  62 2.84  32 3.03
   2  0.029  0.496  0.996-  40 2.48  35 2.49  54 3.02  61 3.17
   3  0.030  0.515  0.491-  34 2.29  60 2.66  55 2.92  41 3.27
   4  0.510  0.991  0.991-  59 2.63  48 2.67  46 3.05  37 3.07
   5  0.505  0.963  0.467-  58 2.50  47 3.13  36 3.29  49 3.33
   6  0.489  0.481  0.006-  44 2.89  57 2.94  39 3.13  50 3.17
   7  0.483  0.473  0.528-  45 2.23  56 2.28  51 2.71  38 3.06
   8  0.996  0.251  0.223-  40 2.60  52 2.63  32 2.88  60 3.32
   9  0.990  0.252  0.728-  53 2.48  61 2.55  41 2.60  33 3.11
  10  0.007  0.739  0.244-  42 2.49  54 2.70  34 2.86  62 3.02
  11  0.989  0.785  0.750-  63 2.29  43 2.45  55 2.95  35 3.28
  12  0.480  0.266  0.227-  44 2.44  48 2.79  36 3.13  56 3.18
  13  0.504  0.213  0.725-  49 2.48  37 2.51  45 3.02  57 3.14
  14  0.504  0.764  0.253-  58 2.90  46 2.93  50 3.08  38 3.26
  15  0.498  0.744  0.722-  51 2.57  47 2.63  39 2.97  59 3.17
  16  0.236  0.991  0.270-  32 2.47  42 2.64  58 2.66  48 3.14
  17  0.257  0.966  0.756-  59 2.45  43 2.92  33 3.12  49 3.45
  18  0.243  0.487  0.262-  34 2.56  40 2.70  50 2.94  56 2.96  25 3.66
  19  0.270  0.518  0.734-  51 2.62  41 2.90  57 2.93  35 2.94
  20  0.744  0.006  0.269-  36 2.88  46 2.98  62 3.00  52 3.17
  21  0.741  0.996  0.729-  37 2.63  47 2.65  63 3.00  53 3.31
  22  0.727  0.516  0.276-  38 2.75  54 3.00  44 3.31  60 3.58
  23  0.749  0.519  0.757-  39 2.70  55 2.72  61 3.05  45 3.24
  24  0.238  0.257  0.029-  40 2.92  33 2.97  57 3.14  48 3.27
  25  0.249  0.280  0.450-  56 2.33  32 3.04  41 3.17  49 3.19  18 3.66
  26  0.266  0.752  0.994-  50 2.59  59 2.83  35 3.12  42 3.61
  27  0.252  0.712  0.496-  51 2.50  34 2.83  58 2.95  43 3.25
  28  0.757  0.278  0.990-  61 2.67  44 2.72  52 2.97  37 3.29
  29  0.735  0.240  0.517-  36 2.48  45 2.79  53 2.91  60 3.02
  30  0.756  0.740  0.010-  46 2.51  39 2.88  54 2.98  63 3.12
  31  0.752  0.769  0.487-  62 2.54  47 2.61  38 2.64  55 3.49
  32  0.119  0.118  0.347-  16 2.47   8 2.88   1 3.03  25 3.04
  33  0.131  0.130  0.875-  24 2.97   9 3.11  17 3.12
  34  0.121  0.598  0.367-   3 2.29  18 2.56  27 2.83  10 2.86
  35  0.118  0.610  0.872-   2 2.49  19 2.94  26 3.12  11 3.28
  36  0.633  0.161  0.378-  29 2.48  20 2.88  12 3.13   5 3.29
  37  0.630  0.124  0.838-  13 2.51  21 2.63   4 3.07  28 3.29
  38  0.624  0.626  0.422-  31 2.64  22 2.75   7 3.06  14 3.26
  39  0.621  0.631  0.874-  23 2.70  30 2.88  15 2.97   6 3.13
  40  0.103  0.397  0.139-   2 2.48   8 2.60  18 2.70  24 2.92
  41  0.140  0.358  0.652-   9 2.60  19 2.90  25 3.17   3 3.27
  42  0.098  0.886  0.167-  10 2.49  16 2.64  26 3.61
  43  0.106  0.864  0.627-  11 2.45   1 2.62  17 2.92  27 3.25
  44  0.615  0.345  0.126-  12 2.44  28 2.72   6 2.89  22 3.31
  45  0.605  0.384  0.607-   7 2.23  29 2.79  13 3.02  23 3.24
  46  0.655  0.860  0.119-  30 2.51  14 2.93  20 2.98   4 3.05
  47  0.641  0.851  0.629-  31 2.61  15 2.63  21 2.65   5 3.13
  48  0.400  0.094  0.129-   4 2.67  12 2.79  16 3.14  24 3.27
  49  0.380  0.140  0.601-  13 2.48  25 3.19   5 3.33  17 3.45
  50  0.350  0.635  0.131-  26 2.59  18 2.94  14 3.08   6 3.17
  51  0.380  0.632  0.612-  27 2.50  15 2.57  19 2.62   7 2.71
  52  0.879  0.131  0.111-   8 2.63  28 2.97  20 3.17
  53  0.911  0.134  0.602-   9 2.48   1 2.50  29 2.91  21 3.31
  54  0.888  0.606  0.140-  10 2.70  30 2.98  22 3.00   2 3.02
  55  0.897  0.609  0.643-  23 2.72   3 2.92  11 2.95  31 3.49
  56  0.383  0.391  0.411-   7 2.28  25 2.33  18 2.96  12 3.18
  57  0.370  0.361  0.858-  19 2.93   6 2.94  13 3.14  24 3.14
  58  0.359  0.874  0.382-   5 2.50  16 2.66  14 2.90  27 2.95
  59  0.380  0.891  0.875-  17 2.45   4 2.63  26 2.83  15 3.17
  60  0.903  0.370  0.427-   3 2.66  29 3.02   8 3.32  22 3.58
  61  0.887  0.359  0.855-   9 2.55  28 2.67  23 3.05   2 3.17
  62  0.884  0.871  0.389-  31 2.54   1 2.84  20 3.00  10 3.02
  63  0.884  0.874  0.859-  11 2.29  21 3.00  30 3.12
 

IMPORTANT INFORMATION: All symmetrisations will be switched off!
NOSYMM: (Re-)initialisation of all symmetry stuff for point group C_1.


----------------------------------------------------------------------------------------

                                     Primitive cell                                     

  volume of cell :    2241.2856

  direct lattice vectors                    reciprocal lattice vectors
    13.086768000  0.000000000  0.000000000     0.076413061  0.000000000  0.000000000
     0.000000000 13.086768000  0.000000000     0.000000000  0.076413061  0.000000000
     0.000000000  0.000000000 13.086768000     0.000000000  0.000000000  0.076413061

  length of vectors
    13.086768000 13.086768000 13.086768000     0.076413061  0.076413061  0.076413061

  position of ions in fractional coordinates (direct lattice)
     0.009489000  0.997359000  0.512373000
     0.029095000  0.495527000  0.995527000
     0.030168000  0.514661000  0.491032000
     0.510365000  0.991147000  0.991103000
     0.504622000  0.963450000  0.467048000
     0.489258000  0.480652000  0.006003000
     0.482654000  0.473020000  0.527999000
     0.995687000  0.251290000  0.222783000
     0.989601000  0.252119000  0.728012000
     0.007177000  0.738526000  0.244428000
     0.988505000  0.785385000  0.749742000
     0.479794000  0.265713000  0.226678000
     0.503990000  0.212564000  0.724627000
     0.503761000  0.764107000  0.253274000
     0.497791000  0.744248000  0.721755000
     0.236249000  0.991200000  0.270194000
     0.256564000  0.966320000  0.756191000
     0.242644000  0.487069000  0.261685000
     0.269695000  0.517790000  0.733968000
     0.744093000  0.006328000  0.268636000
     0.740846000  0.996453000  0.728865000
     0.727149000  0.515522000  0.275909000
     0.748624000  0.519171000  0.756908000
     0.237676000  0.256904000  0.029382000
     0.249316000  0.279890000  0.449954000
     0.265701000  0.751663000  0.994288000
     0.251753000  0.712031000  0.495804000
     0.756822000  0.278233000  0.990099000
     0.734555000  0.240415000  0.517487000
     0.756280000  0.739880000  0.009805000
     0.751854000  0.768504000  0.486588000
     0.118741000  0.117509000  0.347042000
     0.130657000  0.129987000  0.875098000
     0.120519000  0.597962000  0.366964000
     0.118453000  0.609674000  0.871919000
     0.632719000  0.161032000  0.378335000
     0.629920000  0.123578000  0.838345000
     0.624493000  0.626151000  0.422056000
     0.621325000  0.630761000  0.874337000
     0.102674000  0.396832000  0.139364000
     0.140111000  0.357628000  0.651798000
     0.098220000  0.886211000  0.166845000
     0.106078000  0.864182000  0.626904000
     0.615382000  0.345377000  0.126310000
     0.604707000  0.384047000  0.607436000
     0.654609000  0.860037000  0.118848000
     0.640541000  0.851486000  0.629345000
     0.399971000  0.094292000  0.128527000
     0.379965000  0.139935000  0.601370000
     0.349775000  0.634971000  0.130673000
     0.379785000  0.631618000  0.612009000
     0.879437000  0.130599000  0.111354000
     0.910642000  0.134052000  0.602242000
     0.887542000  0.606380000  0.140036000
     0.897133000  0.609322000  0.643404000
     0.382885000  0.390704000  0.411235000
     0.370312000  0.360601000  0.858007000
     0.359415000  0.873527000  0.381517000
     0.380286000  0.890802000  0.875248000
     0.902767000  0.369944000  0.426964000
     0.886952000  0.358625000  0.854542000
     0.884217000  0.870731000  0.388640000
     0.884040000  0.873609000  0.858823000

  ion indices of the primitive-cell ions
   primitive index   ion index
                 1           1
                 2           2
                 3           3
                 4           4
                 5           5
                 6           6
                 7           7
                 8           8
                 9           9
                10          10
                11          11
                12          12
                13          13
                14          14
                15          15
                16          16
                17          17
                18          18
                19          19
                20          20
                21          21
                22          22
                23          23
                24          24
                25          25
                26          26
                27          27
                28          28
                29          29
                30          30
                31          31
                32          32
                33          33
                34          34
                35          35
                36          36
                37          37
                38          38
                39          39
                40          40
                41          41
                42          42
                43          43
                44          44
                45          45
                46          46
                47          47
                48          48
                49          49
                50          50
                51          51
                52          52
                53          53
                54          54
                55          55
                56          56
                57          57
                58          58
                59          59
                60          60
                61          61
                62          62
                63          63

----------------------------------------------------------------------------------------

 
 
 KPOINTS: Kpoints from DefectsWithTheBoys.vasp_gam

Automatic generation of k-mesh.
Space group operators:
 irot       det(A)        alpha          n_x          n_y          n_z        tau_x        tau_y        tau_z
    1     1.000000     0.000000     1.000000     0.000000     0.000000     0.000000     0.000000     0.000000
 
 Subroutine IBZKPT returns following result:
 ===========================================
 
 Found      1 irreducible k-points:
 
 Following reciprocal coordinates:
            Coordinates               Weight
  0.000000  0.000000  0.000000      1.000000
 
 Following cartesian coordinates:
            Coordinates               Weight
  0.000000  0.000000  0.000000      1.000000
 
 
 Subroutine IBZKPT_HF returns following result:
 ==============================================
 
 Found      1 k-points in 1st BZ
 the following      1 k-points will be used (e.g. in the exchange kernel)
 Following reciprocal coordinates:   # in IRBZ
  0.000000  0.000000  0.000000    1.00000000   1 t-inv F


--------------------------------------------------------------------------------------------------------




 Dimension of arrays:
   k-points           NKPTS =      1   k-points in BZ     NKDIM =      1   number of bands    NBANDS=    340
   number of dos      NEDOS =   2000   number of ions     NIONS =     63
   non local maximal  LDIM  =      6   non local SUM 2l+1 LMDIM =     18
   total plane-waves  NPLWV = 884736
   max r-space proj   IRMAX =   4034   max aug-charges    IRDMAX=  23156
   dimension x,y,z NGX =    96 NGY =   96 NGZ =   96
   dimension x,y,z NGXF=   192 NGYF=  192 NGZF=  192
   support grid    NGXF=   192 NGYF=  192 NGZF=  192
   ions per type =              31  32
   NGX,Y,Z   is equivalent  to a cutoff of  12.20, 12.20, 12.20 a.u.
   NGXF,Y,Z  is equivalent  to a cutoff of  24.39, 24.39, 24.39 a.u.

 SYSTEM =  unknown system                          
 POSCAR =  only_rattled_vac_1_Cd[0. 0. 0.]_KV=-dNEL

 Startparameter for this run:
   NWRITE =      2    write-flag & timer
   PREC   = accura    normal or accurate (medium, high low for compatibility)
   ISTART =      0    job   : 0-new  1-cont  2-samecut
   ICHARG =      1    charge: 1-file 2-atom 10-const
   ISPIN  =      1    spin polarized calculation?
   LNONCOLLINEAR =      F non collinear calculations
   LSORBIT =      F    spin-orbit coupling
   INIWAV =      1    electr: 0-lowe 1-rand  2-diag
   LASPH  =      T    aspherical Exc in radial PAW
   METAGGA=      F    non-selfconsistent MetaGGA calc.

 Electronic Relaxation 1
   ENCUT  =  450.0 eV  33.07 Ry    5.75 a.u.  22.64 22.64 22.64*2*pi/ulx,y,z
   ENINI  =  450.0     initial cutoff
   ENAUG  =  456.1 eV  augmentation charge cutoff
   NELM   =    100;   NELMIN=  2; NELMDL= -5     # of ELM steps 
   EDIFF  = 0.5E-05   stopping-criterion for ELM
   LREAL  =      T    real-space projection
   NLSPLINE    = F    spline interpolate recip. space projectors
   LCOMPAT=      F    compatible to vasp.4.4
   GGA_COMPAT  = T    GGA compatible to vasp.4.4-vasp.4.6
   LMAXPAW     = -100 max onsite density
   LMAXMIX     =    2 max onsite mixed and CHGCAR
   VOSKOWN=      0    Vosko Wilk Nusair interpolation
   ROPT   =   -0.00100  -0.00100
 Ionic relaxation
   EDIFFG = -.1E-01   stopping-criterion for IOM
   NSW    =    300    number of steps for IOM
   NBLOCK =      1;   KBLOCK =    300    inner block; outer block 
   IBRION =      2    ionic relax: 0-MD 1-quasi-New 2-CG
   NFREE  =      1    steps in history (QN), initial steepest desc. (CG)
   ISIF   =      2    stress and relaxation
   IWAVPR =     11    prediction:  0-non 1-charg 2-wave 3-comb
   ISYM   =      0    0-nonsym 1-usesym 2-fastsym
   LCORR  =      T    Harris-Foulkes like correction to forces

   POTIM  = 0.2000    time-step for ionic-motion
   TEIN   =    0.0    initial temperature
   TEBEG  =    0.0;   TEEND  =   0.0 temperature during run
   SMASS  =  -3.00    Nose mass-parameter (am)
   estimated Nose-frequenzy (Omega)   =  0.10E-29 period in steps = 0.31E+47 mass=  -0.391E-26a.u.
   SCALEE = 1.0000    scale energy and forces
   NPACO  =    256;   APACO  = 16.0  distance and # of slots for P.C.
   PSTRESS=    0.0 pullay stress

  Mass of Ions in am
   POMASS = 112.41127.60
  Ionic Valenz
   ZVAL   =  12.00  6.00
  Atomic Wigner-Seitz radii
   RWIGS  =  -1.00 -1.00
  virtual crystal weights 
   VCA    =   1.00  1.00
   NELECT =     566.0000    total number of electrons
   NUPDOWN=       0.0000    fix difference up-down

 DOS related values:
   EMIN   =  10.00;   EMAX   =-10.00  energy-range for DOS
   EFERMI =   0.00
   ISMEAR =     0;   SIGMA  =   0.05  broadening in eV -4-tet -1-fermi 0-gaus

 Electronic relaxation 2 (details)
   IALGO  =     38    algorithm
   LDIAG  =      T    sub-space diagonalisation (order eigenvalues)
   LSUBROT=      F    optimize rotation matrix (better conditioning)
   TURBO    =      0    0=normal 1=particle mesh
   IRESTART =      0    0=no restart 2=restart with 2 vectors
   NREBOOT  =      0    no. of reboots
   NMIN     =      0    reboot dimension
   EREF     =   0.00    reference energy to select bands
   IMIX   =      1    mixing-type and parameters
     AMIX     =   0.40;   BMIX     =  1.00
     AMIX_MAG =   1.60;   BMIX_MAG =  1.00
     AMIN     =   0.10
     WC   =   100.;   INIMIX=   1;  MIXPRE=   1;  MAXMIX= -45

 Intra band minimization:
   WEIMIN = 0.0010     energy-eigenvalue tresh-hold
   EBREAK =  0.37E-08  absolut break condition
   DEPER  =   0.30     relativ break condition  

   TIME   =   0.40     timestep for ELM

  volume/ion in A,a.u.               =      35.58       240.08
  Fermi-wavevector in a.u.,A,eV,Ry     =   1.034780  1.955450 14.568697  1.070769
  Thomas-Fermi vector in A             =   2.169091
 
 Write flags
   LWAVE        =      F    write WAVECAR
   LDOWNSAMPLE  =      F    k-point downsampling of WAVECAR
   LCHARG       =      T    write CHGCAR
   LVTOT        =      F    write LOCPOT, total local potential
   LVHAR        =      F    write LOCPOT, Hartree potential only
   LELF         =      F    write electronic localiz. function (ELF)
   LORBIT       =     11    0 simple, 1 ext, 2 COOP (PROOUT), +10 PAW based schemes


 Dipole corrections
   LMONO  =      F    monopole corrections only (constant potential shift)
   LDIPOL =      F    correct potential (dipole corrections)
   IDIPOL =      0    1-x, 2-y, 3-z, 4-all directions 
   EPSILON=  1.0000000 bulk dielectric constant

 Exchange correlation treatment:
   GGA     =    --    GGA type
   LEXCH   =     8    internal setting for exchange type
   VOSKOWN=      0    Vosko Wilk Nusair interpolation
   EXXOEP  =     0    0=HF, 1=EXX-LHF (local Hartree Fock) 2=EXX OEP
   LHFCALC =     T    Hartree Fock is set to
   LSYMGRAD=     F    symmetrize gradient (conserves proper symmetry)
   PRECFOCK=fast      Normal, Fast or Accurate (Low or Medium for compatibility)
   LRHFCALC=     F    long range Hartree Fock
   LRSCOR  =     F    long range correlation only (use DFT for short range part)
   LTHOMAS =     F    Thomas Fermi screening in HF
   LMODELHF=     F    short range full HF, long range fraction AEXX
   LFOCKACE=     T    use Adeptively-Compressed-Exchange operator
   ENCUT4O =  -1.0   cutoff for four orbital integrals eV
   LMAXFOCK=     4    L truncation for augmentation on plane wave grid
   LMAXFOCKAE=  -1    L truncation for all-electron charge restoration on plane wave grid
   NMAXFOCKAE=   1    number of basis functions for all-electron charge restoration
   LFOCKAEDFT=     F  apply the AE augmentation even for DFT
   NKREDX  =     1    reduce k-point grid by
   NKREDY  =     1    reduce k-point grid by
   NKREDZ  =     1    reduce k-point grid by
   SHIFTRED=     F    shift reduced grid of Gamma
   HFKIDENT=     F    idential grid for each k-point
   ODDONLY =     F    use only odd q-grid points
   EVENONLY=     F    use only even q-grid points
   HFALPHA =   -1.0000 decay constant for conv. correction
   MCALPHA =    0.0000 extent of test-charge in conv. correction in multipole expansion
   AEXX    =    0.3450 exact exchange contribution
   HFSCREEN=    0.2000 screening length (either q_TF or 0.3 A-1)
   HFSCREENC=   0.2000 screening length for correlation (either q_TF or 0.3 A-1)
   HFRCUT  =    0.0000 spherical cutoff for potential kernel
   ALDAX   =    0.6550 LDA exchange part
   AGGAX   =    0.6550 GGA exchange part
   ALDAC   =    1.0000 LDA correlation
   AGGAC   =    1.0000 GGA correlation
   ENCUTFOCK=  -1.0 apply spherical cutoff to Coloumb kernel
   NBANDSGWLOW=     1    first orbital included in HF term
   NBLOCK_FOCK=    64    blocking factor in FOCK_ACC
 Linear response parameters
   LEPSILON=     F    determine dielectric tensor
   LRPA    =     F    only Hartree local field effects (RPA)
   LNABLA  =     F    use nabla operator in PAW spheres
   LVEL    =     F    velocity operator in full k-point grid
   LINTERFAST=   F  fast interpolation
   KINTER  =     0    interpolate to denser k-point grid
   CSHIFT  =0.1000    complex shift for real part using Kramers Kronig
   OMEGAMAX=  -1.0    maximum frequency
   DEG_THRESHOLD= 0.2000000E-02 threshold for treating states as degnerate
   RTIME   =   -0.100 relaxation time in fs
  (WPLASMAI=    0.000 imaginary part of plasma frequency in eV, 0.658/RTIME)
   DFIELD  = 0.0000000 0.0000000 0.0000000 field for delta impulse in time
 
 Orbital magnetization related:
   ORBITALMAG=     F  switch on orbital magnetization
   LCHIMAG   =     F  perturbation theory with respect to B field
   DQ        =  0.001000  dq finite difference perturbation B field
   LLRAUG    =     F  two centre corrections for induced B field



--------------------------------------------------------------------------------------------------------


 conjugate gradient relaxation of ions
 charge density and potential will be updated during run
 non-spin polarized calculation
 Variant of blocked Davidson
 Davidson routine will perform the subspace rotation
 perform sub-space diagonalisation
    after iterative eigenvector-optimisation
 Kerker-like  mixing scheme
 using additional bands           57
 real space projection scheme for non local part
 use partial core corrections
 calculate Harris-corrections to forces 
   (improved forces if not selfconsistent)
 use gradient corrections 
 use of overlap-Matrix (Vanderbilt PP)
 Gauss-broadening in eV      SIGMA  =   0.05


--------------------------------------------------------------------------------------------------------


  energy-cutoff  :      450.00
  volume of cell :     2241.29
      direct lattice vectors                 reciprocal lattice vectors
    13.086768000  0.000000000  0.000000000     0.076413061  0.000000000  0.000000000
     0.000000000 13.086768000  0.000000000     0.000000000  0.076413061  0.000000000
     0.000000000  0.000000000 13.086768000     0.000000000  0.000000000  0.076413061

  length of vectors
    13.086768000 13.086768000 13.086768000     0.076413061  0.076413061  0.076413061


 
 k-points in units of 2pi/SCALE and weight: Kpoints from DefectsWithTheBoys.vasp_gam
   0.00000000  0.00000000  0.00000000       1.000
 
 k-points in reciprocal lattice and weights: Kpoints from DefectsWithTheBoys.vasp_gam
   0.00000000  0.00000000  0.00000000       1.000
 
 position of ions in fractional coordinates (direct lattice) 
   0.00948900  0.99735900  0.51237300
   0.02909500  0.49552700  0.99552700
   0.03016800  0.51466100  0.49103200
   0.51036500  0.99114700  0.99110300
   0.50462200  0.96345000  0.46704800
   0.48925800  0.48065200  0.00600300
   0.48265400  0.47302000  0.52799900
   0.99568700  0.25129000  0.22278300
   0.98960100  0.25211900  0.72801200
   0.00717700  0.73852600  0.24442800
   0.98850500  0.78538500  0.74974200
   0.47979400  0.26571300  0.22667800
   0.50399000  0.21256400  0.72462700
   0.50376100  0.76410700  0.25327400
   0.49779100  0.74424800  0.72175500
   0.23624900  0.99120000  0.27019400
   0.25656400  0.96632000  0.75619100
   0.24264400  0.48706900  0.26168500
   0.26969500  0.51779000  0.73396800
   0.74409300  0.00632800  0.26863600
   0.74084600  0.99645300  0.72886500
   0.72714900  0.51552200  0.27590900
   0.74862400  0.51917100  0.75690800
   0.23767600  0.25690400  0.02938200
   0.24931600  0.27989000  0.44995400
   0.26570100  0.75166300  0.99428800
   0.25175300  0.71203100  0.49580400
   0.75682200  0.27823300  0.99009900
   0.73455500  0.24041500  0.51748700
   0.75628000  0.73988000  0.00980500
   0.75185400  0.76850400  0.48658800
   0.11874100  0.11750900  0.34704200
   0.13065700  0.12998700  0.87509800
   0.12051900  0.59796200  0.36696400
   0.11845300  0.60967400  0.87191900
   0.63271900  0.16103200  0.37833500
   0.62992000  0.12357800  0.83834500
   0.62449300  0.62615100  0.42205600
   0.62132500  0.63076100  0.87433700
   0.10267400  0.39683200  0.13936400
   0.14011100  0.35762800  0.65179800
   0.09822000  0.88621100  0.16684500
   0.10607800  0.86418200  0.62690400
   0.61538200  0.34537700  0.12631000
   0.60470700  0.38404700  0.60743600
   0.65460900  0.86003700  0.11884800
   0.64054100  0.85148600  0.62934500
   0.39997100  0.09429200  0.12852700
   0.37996500  0.13993500  0.60137000
   0.34977500  0.63497100  0.13067300
   0.37978500  0.63161800  0.61200900
   0.87943700  0.13059900  0.11135400
   0.91064200  0.13405200  0.60224200
   0.88754200  0.60638000  0.14003600
   0.89713300  0.60932200  0.64340400
   0.38288500  0.39070400  0.41123500
   0.37031200  0.36060100  0.85800700
   0.35941500  0.87352700  0.38151700
   0.38028600  0.89080200  0.87524800
   0.90276700  0.36994400  0.42696400
   0.88695200  0.35862500  0.85454200
   0.88421700  0.87073100  0.38864000
   0.88404000  0.87360900  0.85882300
 
 position of ions in cartesian coordinates  (Angst):
   0.12418034 13.05220585  6.70530658
   0.38075951  6.48484689 13.02823089
   0.39480162  6.73524911  6.42602186
   6.67902835 12.97091084 12.97033503
   6.60387104 12.60844663  6.11214882
   6.40280594  6.29018121  0.07855987
   6.31638092  6.19030300  6.90980042
  13.03032477  3.28857393  2.91550944
  12.95067870  3.29942286  9.52732415
   0.09392373  9.66491842  3.19877253
  12.93633560 10.27815129  9.81169961
   6.27895277  3.47732439  2.96648240
   6.59560020  2.78177575  9.48302544
   6.59260333  9.99969104  3.31453808
   6.51447533  9.73980091  9.44544024
   3.09173585 12.97160444  3.53596619
   3.35759355 12.64600565  9.89609618
   3.17542573  6.37415900  3.42461088
   3.52943590  6.77619760  9.60526894
   9.73777246  0.08281307  3.51557701
   9.69527973 13.04034923  9.53848716
   9.51603026  6.74651681  3.61075707
   9.79706861  6.79427043  9.90547939
   3.11041067  3.36204305  0.38451542
   3.26274065  3.66285550  5.88844361
   3.47716734  9.83683930 13.01201638
   3.29463310  9.31818451  6.48847192
   9.90435393  3.64117072 12.95719591
   9.61295087  3.14625533  6.77223231
   9.89726090  9.68263791  0.12831576
   9.83933887 10.05723356  6.36786427
   1.55393592  1.53781302  4.54165814
   1.70987785  1.70110971 11.45220450
   1.57720419  7.82538997  4.80237273
   1.55016693  7.97866219 11.41060167
   8.28024676  2.10738842  4.95118237
   8.24361690  1.61723662 10.97122652
   8.17259501  8.19429287  5.52334896
   8.13113613  8.25462287 11.44224547
   1.34367082  5.19324832  1.82382434
   1.83360015  4.68019467  8.52992921
   1.28538235 11.59763776  2.18346181
   1.38821818 11.30934934  8.20414721
   8.05336147  4.51986867  1.65298967
   7.91366022  5.02593399  7.94937401
   8.56671611 11.25510469  1.55533620
   8.38261146 11.14319974  8.23609201
   5.23432768  1.23397753  1.68200303
   4.97251380  1.83129688  7.86998967
   4.57742428  8.30971816  1.71008723
   4.97015818  8.26583823  8.00921980
  11.50898799  1.70911881  1.45726396
  11.91736059  1.75430742  7.88140133
  11.61505624  7.93555438  1.83261864
  11.74057144  7.97405565  8.42007888
   5.01072717  5.11305260  5.38173704
   4.84618723  4.71910163 11.22853855
   4.70358072 11.43164519  4.99282447
   4.97671466 11.65771911 11.45416752
  11.81430229  4.84137130  5.58757881
  11.60733505  4.69324217 11.18319290
  11.57154274 11.39505459  5.08604152
  11.56922638 11.43271831 11.23921735
 


--------------------------------------------------------------------------------------------------------


 use parallel FFT for orbitals z direction half grid
 k-point   1 :   0.0000 0.0000 0.0000  plane waves:   24251

 maximum and minimum number of plane-waves per node :      2027     2015

 maximum number of plane-waves:     24251
 maximum index in each direction: 
   IXMAX=   22   IYMAX=   22   IZMAX=   22
   IXMIN=  -22   IYMIN=  -22   IZMIN=    0


 real space projection operators:
  total allocation   :      27384.02 KBytes
  max/ min on nodes  :       2503.43       2122.67


 parallel 3D FFT for wavefunctions:
    minimum data exchange during FFTs selected (reduces bandwidth)
 parallel 3D FFT for charge:
    minimum data exchange during FFTs selected (reduces bandwidth)


 FFT grid for exact exchange (Hartree Fock) 
  NGX = 48; NGY = 48; NGZ = 48

 use parallel FFT for orbitals z direction half grid
 
 Radii for the augmentation spheres in the non-local exchange
 for species   1 augmentation radius   1.444 (default was   1.070)
       energy cutoff for augmentation   1800.0
 for species   2 augmentation radius   1.606 (default was   1.190)
       energy cutoff for augmentation   1800.0

 real space projection operators:
  total allocation   :       9124.80 KBytes
  max/ min on nodes  :        868.95        640.04

 Maximum index for augmentation-charges in exchange           91
  SETUP_FOCK is finished

 total amount of memory used by VASP MPI-rank0    54543. kBytes
=======================================================================

   base      :      30000. kBytes
   nonlr-proj:       3399. kBytes
   fftplans  :       6877. kBytes
   grid      :      11280. kBytes
   one-center:         46. kBytes
   HF        :        129. kBytes
   wavefun   :       2812. kBytes
 
     INWAV:  cpu time    0.0000: real time    0.0000
 initial charge density was supplied:
 charge density of overlapping atoms calculated
 number of electron     564.0000000 magnetization 
 keeping initial charge density in first step


--------------------------------------------------------------------------------------------------------


 Maximum index for non-local projection operator          310
 Maximum index for augmentation-charges          779 (set IRDMAX)


--------------------------------------------------------------------------------------------------------


 First call to EWALD:  gamma=   0.135
 Maximum number of real-space cells 3x 3x 3
 Maximum number of reciprocal cells 3x 3x 3

    FEWALD:  cpu time    0.0037: real time    0.0037


--------------------------------------- Iteration      1(   1)  ---------------------------------------


    POTLOK:  cpu time    0.1015: real time    0.1099
    SETDIJ:  cpu time    0.5789: real time    0.5812
     EDDAV:  cpu time    2.5264: real time    2.6473
       DOS:  cpu time    0.0061: real time    0.0061
    --------------------------------------------
      LOOP:  cpu time    3.2128: real time    3.3444

 eigenvalue-minimisations  :   792
 total energy-change (2. order) :-0.8840821E+05  (-0.2805297E+05)
 number of electron     564.0000000 magnetization 
 augmentation part      564.0000000 magnetization 

 Free energy of the ion-electron system (eV)
  ---------------------------------------------------
  alpha Z        PSCENC =      1482.04539224
  Ewald energy   TEWEN  =    -31090.79345279
  -Hartree energ DENC   =    -17063.25374168
  -exchange      EXHF   =         0.00000000
  -V(xc)+E(xc)   XCENC  =      -730.08197630
  PAW double counting   =     43745.08136476  -132352.96792733
  entropy T*S    EENTRO =        -0.01765222
  eigenvalues    EBANDS =       463.40219978
  atomic energy  EATOM  =     47138.37786884
  Solvation  Ediel_sol  =         0.00000000
  ---------------------------------------------------
  free energy    TOTEN  =    -88408.20792470 eV

  energy without entropy =   -88408.19027248  energy(sigma->0) =   -88408.19909859
  exchange ACFDT corr.  =         0.00000000  see jH, gK, PRB 81, 115126


--------------------------------------------------------------------------------------------------------




--------------------------------------- Iteration      1(   2)  ---------------------------------------


     EDDAV:  cpu time    2.4689: real time    2.6004
       DOS:  cpu time    0.0008: real time    0.0008
    --------------------------------------------
      LOOP:  cpu time    2.4697: real time    2.6012

 eigenvalue-minimisations  :   780
 total energy-change (2. order) :-0.4406321E+04  (-0.4278351E+04)
 number of electron     564.0000000 magnetization 
 augmentation part      564.0000000 magnetization 

 Free energy of the ion-electron system (eV)
  ---------------------------------------------------
  alpha Z        PSCENC =      1482.04539224
  Ewald energy   TEWEN  =    -31090.79345279
  -Hartree energ DENC   =    -17063.25374168
  -exchange      EXHF   =         0.00000000
  -V(xc)+E(xc)   XCENC  =      -730.08197630
  PAW double counting   =     43745.08136476  -132352.96792733
  entropy T*S    EENTRO =        -0.00000000
  eigenvalues    EBANDS =     -3942.93660738
  atomic energy  EATOM  =     47138.37786884
  Solvation  Ediel_sol  =         0.00000000
  ---------------------------------------------------
  free energy    TOTEN  =    -92814.52907964 eV

  energy without entropy =   -92814.52907964  energy(sigma->0) =   -92814.52907964
  exchange ACFDT corr.  =         0.00000000  see jH, gK, PRB 81, 115126


--------------------------------------------------------------------------------------------------------




--------------------------------------- Iteration      1(   3)  ---------------------------------------


     EDDAV:  cpu time    2.2723: real time    2.3598
       DOS:  cpu time    0.0046: real time    0.0046
    --------------------------------------------
      LOOP:  cpu time    2.2768: real time    2.3644

 eigenvalue-minimisations  :   784
 total energy-change (2. order) :-0.3747951E+03  (-0.3700982E+03)
 number of electron     564.0000000 magnetization 
 augmentation part      564.0000000 magnetization 

 Free energy of the ion-electron system (eV)
  ---------------------------------------------------
  alpha Z        PSCENC =      1482.04539224
  Ewald energy   TEWEN  =    -31090.79345279
  -Hartree energ DENC   =    -17063.25374168
  -exchange      EXHF   =         0.00000000
  -V(xc)+E(xc)   XCENC  =      -730.08197630
  PAW double counting   =     43745.08136476  -132352.96792733
  entropy T*S    EENTRO =        -0.00000000
  eigenvalues    EBANDS =     -4317.73174372
  atomic energy  EATOM  =     47138.37786884
  Solvation  Ediel_sol  =         0.00000000
  ---------------------------------------------------
  free energy    TOTEN  =    -93189.32421598 eV

  energy without entropy =   -93189.32421598  energy(sigma->0) =   -93189.32421598
  exchange ACFDT corr.  =         0.00000000  see jH, gK, PRB 81, 115126


--------------------------------------------------------------------------------------------------------




--------------------------------------- Iteration      1(   4)  ---------------------------------------


     EDDAV:  cpu time    2.8436: real time    2.9092
       DOS:  cpu time    0.0041: real time    0.0041
    --------------------------------------------
      LOOP:  cpu time    2.8477: real time    2.9133

 eigenvalue-minimisations  :   904
 total energy-change (2. order) :-0.2107989E+02  (-0.2100491E+02)
 number of electron     564.0000000 magnetization 
 augmentation part      564.0000000 magnetization 

 Free energy of the ion-electron system (eV)
  ---------------------------------------------------
  alpha Z        PSCENC =      1482.04539224
  Ewald energy   TEWEN  =    -31090.79345279
  -Hartree energ DENC   =    -17063.25374168
  -exchange      EXHF   =         0.00000000
  -V(xc)+E(xc)   XCENC  =      -730.08197630
  PAW double counting   =     43745.08136476  -132352.96792733
  entropy T*S    EENTRO =        -0.00000000
  eigenvalues    EBANDS =     -4338.81163020
  atomic energy  EATOM  =     47138.37786884
  Solvation  Ediel_sol  =         0.00000000
  ---------------------------------------------------
  free energy    TOTEN  =    -93210.40410246 eV

  energy without entropy =   -93210.40410246  energy(sigma->0) =   -93210.40410246
  exchange ACFDT corr.  =         0.00000000  see jH, gK, PRB 81, 115126


--------------------------------------------------------------------------------------------------------




--------------------------------------- Iteration      1(   5)  ---------------------------------------


    POTLOK:  cpu time    0.2814: real time    0.2839
    SETDIJ:  cpu time    0.9215: real time    0.9221
     EDDAV:  cpu time   17.9687: real time   18.1822
       DOS:  cpu time    0.0008: real time    0.0008
    CHARGE:  cpu time    0.0735: real time    0.0736
    MIXING:  cpu time    0.0012: real time    0.0012
    --------------------------------------------
      LOOP:  cpu time   19.2471: real time   19.4638

 eigenvalue-minimisations  :   680
 total energy-change (2. order) : 0.9303365E+05  (-0.7806288E+02)
 number of electron     564.7999995 magnetization 
 augmentation part      140.2582206 magnetization 

 Free energy of the ion-electron system (eV)
  ---------------------------------------------------
  alpha Z        PSCENC =      1482.04539224
  Ewald energy   TEWEN  =    -31090.79345279
  -Hartree energ DENC   =    -17063.25374168
  -exchange      EXHF   =      1594.03075242
  -V(xc)+E(xc)   XCENC  =      -597.04443205
  PAW double counting   =     43590.36926174   -41748.31759969
  entropy T*S    EENTRO =        -0.00000000
  eigenvalues    EBANDS =     -3482.17004763
  atomic energy  EATOM  =     47138.37786884
  Solvation  Ediel_sol  =         0.00000000
  ---------------------------------------------------
  free energy    TOTEN  =      -176.75599859 eV

  energy without entropy =     -176.75599859  energy(sigma->0) =     -176.75599859
  exchange ACFDT corr.  =         0.00000000  see jH, gK, PRB 81, 115126


--------------------------------------------------------------------------------------------------------




--------------------------------------- Iteration      1(   6)  ---------------------------------------


    POTLOK:  cpu time    0.2451: real time    0.2475
    SETDIJ:  cpu time    0.9181: real time    0.9184
     EDDAV:  cpu time   18.2743: real time   18.4878
       DOS:  cpu time    0.0008: real time    0.0008
    CHARGE:  cpu time    0.0740: real time    0.0740
    MIXING:  cpu time    0.0012: real time    0.0012
    --------------------------------------------
      LOOP:  cpu time   19.5134: real time   19.7297

 eigenvalue-minimisations  :   768
 total energy-change (2. order) : 0.4827222E+00  (-0.6588093E+01)
 number of electron     565.2799992 magnetization 
 augmentation part      140.6195053 magnetization 

 Free energy of the ion-electron system (eV)
  ---------------------------------------------------
  alpha Z        PSCENC =      1482.04539224
  Ewald energy   TEWEN  =    -31090.79345279
  -Hartree energ DENC   =    -17075.51534874
  -exchange      EXHF   =      1534.99025186
  -V(xc)+E(xc)   XCENC  =      -592.99634360
  PAW double counting   =     76044.63556190   -74184.15102606
  entropy T*S    EENTRO =        -0.00000000
  eigenvalues    EBANDS =     -3432.86618009
  atomic energy  EATOM  =     47138.37786884
  Solvation  Ediel_sol  =         0.00000000
  ---------------------------------------------------
  free energy    TOTEN  =      -176.27327643 eV

  energy without entropy =     -176.27327643  energy(sigma->0) =     -176.27327643
  exchange ACFDT corr.  =         0.00000000  see jH, gK, PRB 81, 115126


--------------------------------------------------------------------------------------------------------




--------------------------------------- Iteration      1(   7)  ---------------------------------------


    POTLOK:  cpu time    0.2462: real time    0.2467
    SETDIJ:  cpu time    0.9353: real time    0.9359
     EDDAV:  cpu time   18.1659: real time   18.4599
       DOS:  cpu time    0.0050: real time    0.0050
    CHARGE:  cpu time    0.0734: real time    0.0743
    MIXING:  cpu time    0.0017: real time    0.0017
    --------------------------------------------
      LOOP:  cpu time   19.4276: real time   19.7234

 eigenvalue-minimisations  :   752
 total energy-change (2. order) : 0.9178421E+00  (-0.1648371E+01)
 number of electron     565.5679990 magnetization 
 augmentation part      142.3986663 magnetization 

 Free energy of the ion-electron system (eV)
  ---------------------------------------------------
  alpha Z        PSCENC =      1482.04539224
  Ewald energy   TEWEN  =    -31090.79345279
  -Hartree energ DENC   =    -16977.03860186
  -exchange      EXHF   =      1513.66683681
  -V(xc)+E(xc)   XCENC  =      -592.20429034
  PAW double counting   =    106490.45935353  -104618.84168381
  entropy T*S    EENTRO =        -0.00000000
  eigenvalues    EBANDS =     -3521.02685692
  atomic energy  EATOM  =     47138.37786884
  Solvation  Ediel_sol  =         0.00000000
  ---------------------------------------------------
  free energy    TOTEN  =      -175.35543431 eV

  energy without entropy =     -175.35543431  energy(sigma->0) =     -175.35543431
  exchange ACFDT corr.  =         0.00000000  see jH, gK, PRB 81, 115126


--------------------------------------------------------------------------------------------------------




--------------------------------------- Iteration      1(   8)  ---------------------------------------


    POTLOK:  cpu time    0.2504: real time    0.2552
    SETDIJ:  cpu time    0.9143: real time    0.9176
     EDDAV:  cpu time   18.5712: real time   19.2378
       DOS:  cpu time    0.0008: real time    0.0008
    CHARGE:  cpu time    0.0723: real time    0.0725
    MIXING:  cpu time    0.0012: real time    0.0012
    --------------------------------------------
      LOOP:  cpu time   19.8103: real time   20.4852

 eigenvalue-minimisations  :   788
 total energy-change (2. order) :-0.3595385E+00  (-0.3400442E+00)
 number of electron     565.7407989 magnetization 
 augmentation part      143.1231121 magnetization 

 Free energy of the ion-electron system (eV)
  ---------------------------------------------------
  alpha Z        PSCENC =      1482.04539224
  Ewald energy   TEWEN  =    -31090.79345279
  -Hartree energ DENC   =    -16930.68912510
  -exchange      EXHF   =      1508.03922917
  -V(xc)+E(xc)   XCENC  =      -591.51217291
  PAW double counting   =    127419.19175795  -125545.40762124
  entropy T*S    EENTRO =        -0.00000000
  eigenvalues    EBANDS =     -3564.96684899
  atomic energy  EATOM  =     47138.37786884
  Solvation  Ediel_sol  =         0.00000000
  ---------------------------------------------------
  free energy    TOTEN  =      -175.71497283 eV

  energy without entropy =     -175.71497283  energy(sigma->0) =     -175.71497283
  exchange ACFDT corr.  =         0.00000000  see jH, gK, PRB 81, 115126


--------------------------------------------------------------------------------------------------------




--------------------------------------- Iteration      1(   9)  ---------------------------------------


    POTLOK:  cpu time    0.2452: real time    0.2477
    SETDIJ:  cpu time    0.9219: real time    0.9225
     EDDAV:  cpu time   18.3036: real time   18.5125
       DOS:  cpu time    0.0033: real time    0.0033
    CHARGE:  cpu time    0.0754: real time    0.0754
    MIXING:  cpu time    0.0013: real time    0.0013
    --------------------------------------------
      LOOP:  cpu time   19.5506: real time   19.7626

 eigenvalue-minimisations  :   732
 total energy-change (2. order) : 0.1322163E+00  (-0.3266262E-01)
 number of electron     565.8444788 magnetization 
 augmentation part      143.2634122 magnetization 

 Free energy of the ion-electron system (eV)
  ---------------------------------------------------
  alpha Z        PSCENC =      1482.04539224
  Ewald energy   TEWEN  =    -31090.79345279
  -Hartree energ DENC   =    -16914.77260158
  -exchange      EXHF   =      1506.77128729
  -V(xc)+E(xc)   XCENC  =      -590.91017618
  PAW double counting   =    141624.32016138  -139751.10961204
  entropy T*S    EENTRO =        -0.00000000
  eigenvalues    EBANDS =     -3579.51162370
  atomic energy  EATOM  =     47138.37786884
  Solvation  Ediel_sol  =         0.00000000
  ---------------------------------------------------
  free energy    TOTEN  =      -175.58275654 eV

  energy without entropy =     -175.58275654  energy(sigma->0) =     -175.58275654
  exchange ACFDT corr.  =         0.00000000  see jH, gK, PRB 81, 115126


--------------------------------------------------------------------------------------------------------




--------------------------------------- Iteration      1(  10)  ---------------------------------------


    POTLOK:  cpu time    0.2488: real time    0.2516
    SETDIJ:  cpu time    0.9225: real time    0.9274
     EDDAV:  cpu time   18.4405: real time   18.9146
       DOS:  cpu time    0.0008: real time    0.0008
    CHARGE:  cpu time    0.0727: real time    0.0728
    MIXING:  cpu time    0.0013: real time    0.0013
    --------------------------------------------
      LOOP:  cpu time   19.6867: real time   20.1685

 eigenvalue-minimisations  :   724
 total energy-change (2. order) : 0.1102850E+00  (-0.9212348E-02)
 number of electron     565.9066868 magnetization 
 augmentation part      143.2331387 magnetization 

 Free energy of the ion-electron system (eV)
  ---------------------------------------------------
  alpha Z        PSCENC =      1482.04539224
  Ewald energy   TEWEN  =    -31090.79345279
  -Hartree energ DENC   =    -16906.93006522
  -exchange      EXHF   =      1506.81355348
  -V(xc)+E(xc)   XCENC  =      -590.49967089
  PAW double counting   =    150286.39821320  -148413.77274639
  entropy T*S    EENTRO =        -0.00000000
  eigenvalues    EBANDS =     -3587.11156404
  atomic energy  EATOM  =     47138.37786884
  Solvation  Ediel_sol  =         0.00000000
  ---------------------------------------------------
  free energy    TOTEN  =      -175.47247157 eV

  energy without entropy =     -175.47247157  energy(sigma->0) =     -175.47247157
  exchange ACFDT corr.  =         0.00000000  see jH, gK, PRB 81, 115126


--------------------------------------------------------------------------------------------------------




--------------------------------------- Iteration      1(  11)  ---------------------------------------


    POTLOK:  cpu time    0.2444: real time    0.2469
    SETDIJ:  cpu time    0.9395: real time    0.9399
     EDDAV:  cpu time   18.8326: real time   19.2213
       DOS:  cpu time    0.0008: real time    0.0008
    CHARGE:  cpu time    0.0730: real time    0.0730
    MIXING:  cpu time    0.0011: real time    0.0011
    --------------------------------------------
      LOOP:  cpu time   20.0914: real time   20.4831

 eigenvalue-minimisations  :   732
 total energy-change (2. order) : 0.3235819E-01  (-0.5368977E-02)
 number of electron     565.9440116 magnetization 
 augmentation part      143.1863425 magnetization 

 Free energy of the ion-electron system (eV)
  ---------------------------------------------------
  alpha Z        PSCENC =      1482.04539224
  Ewald energy   TEWEN  =    -31090.79345279
  -Hartree energ DENC   =    -16902.00944224
  -exchange      EXHF   =      1507.15636381
  -V(xc)+E(xc)   XCENC  =      -590.24419771
  PAW double counting   =    155441.07181917  -153568.70229238
  entropy T*S    EENTRO =        -0.00000000
  eigenvalues    EBANDS =     -3592.34217231
  atomic energy  EATOM  =     47138.37786884
  Solvation  Ediel_sol  =         0.00000000
  ---------------------------------------------------
  free energy    TOTEN  =      -175.44011337 eV

  energy without entropy =     -175.44011337  energy(sigma->0) =     -175.44011337
  exchange ACFDT corr.  =         0.00000000  see jH, gK, PRB 81, 115126


--------------------------------------------------------------------------------------------------------




--------------------------------------- Iteration      1(  12)  ---------------------------------------


    POTLOK:  cpu time    0.2561: real time    0.2563
    SETDIJ:  cpu time    0.9221: real time    0.9226
     EDDAV:  cpu time   18.4416: real time   18.6037
       DOS:  cpu time    0.0008: real time    0.0008
    CHARGE:  cpu time    0.0731: real time    0.0742
    MIXING:  cpu time    0.0018: real time    0.0018
    --------------------------------------------
      LOOP:  cpu time   19.6955: real time   19.8593

 eigenvalue-minimisations  :   740
 total energy-change (2. order) : 0.8813850E-02  (-0.1606132E-02)
 number of electron     565.9664064 magnetization 
 augmentation part      143.1662443 magnetization 

 Free energy of the ion-electron system (eV)
  ---------------------------------------------------
  alpha Z        PSCENC =      1482.04539224
  Ewald energy   TEWEN  =    -31090.79345279
  -Hartree energ DENC   =    -16898.99658517
  -exchange      EXHF   =      1507.45579382
  -V(xc)+E(xc)   XCENC  =      -590.09010915
  PAW double counting   =    158503.09166911  -156630.80832370
  entropy T*S    EENTRO =        -0.00000000
  eigenvalues    EBANDS =     -3595.71355272
  atomic energy  EATOM  =     47138.37786884
  Solvation  Ediel_sol  =         0.00000000
  ---------------------------------------------------
  free energy    TOTEN  =      -175.43129952 eV

  energy without entropy =     -175.43129952  energy(sigma->0) =     -175.43129952
  exchange ACFDT corr.  =         0.00000000  see jH, gK, PRB 81, 115126


--------------------------------------------------------------------------------------------------------




--------------------------------------- Iteration      1(  13)  ---------------------------------------


    POTLOK:  cpu time    0.2502: real time    0.2526
    SETDIJ:  cpu time    0.9489: real time    0.9539
     EDDAV:  cpu time   18.4642: real time   18.9503
       DOS:  cpu time    0.0011: real time    0.0010
    CHARGE:  cpu time    0.0738: real time    0.0739
    MIXING:  cpu time    0.0019: real time    0.0019
    --------------------------------------------
      LOOP:  cpu time   19.7400: real time   20.2335

 eigenvalue-minimisations  :   732
 total energy-change (2. order) : 0.3585691E-02  (-0.4446073E-03)
 number of electron     565.9798433 magnetization 
 augmentation part      143.1608570 magnetization 

 Free energy of the ion-electron system (eV)
  ---------------------------------------------------
  alpha Z        PSCENC =      1482.04539224
  Ewald energy   TEWEN  =    -31090.79345279
  -Hartree energ DENC   =    -16897.21566830
  -exchange      EXHF   =      1507.58991336
  -V(xc)+E(xc)   XCENC  =      -589.99860129
  PAW double counting   =    160321.18026324  -158448.92990776
  entropy T*S    EENTRO =        -0.00000000
  eigenvalues    EBANDS =     -3597.68352138
  atomic energy  EATOM  =     47138.37786884
  Solvation  Ediel_sol  =         0.00000000
  ---------------------------------------------------
  free energy    TOTEN  =      -175.42771383 eV

  energy without entropy =     -175.42771383  energy(sigma->0) =     -175.42771383
  exchange ACFDT corr.  =         0.00000000  see jH, gK, PRB 81, 115126


--------------------------------------------------------------------------------------------------------




--------------------------------------- Iteration      1(  14)  ---------------------------------------


    POTLOK:  cpu time    0.2521: real time    0.2542
    SETDIJ:  cpu time    0.9228: real time    0.9237
     EDDAV:  cpu time   18.3714: real time   18.5194
       DOS:  cpu time    0.0008: real time    0.0008
    CHARGE:  cpu time    0.0746: real time    0.0747
    MIXING:  cpu time    0.0012: real time    0.0012
    --------------------------------------------
      LOOP:  cpu time   19.6230: real time   19.7739

 eigenvalue-minimisations  :   724
 total energy-change (2. order) : 0.1291441E-02  (-0.2237121E-03)
 number of electron     565.9879055 magnetization 
 augmentation part      143.1590418 magnetization 

 Free energy of the ion-electron system (eV)
  ---------------------------------------------------
  alpha Z        PSCENC =      1482.04539224
  Ewald energy   TEWEN  =    -31090.79345279
  -Hartree energ DENC   =    -16896.18777490
  -exchange      EXHF   =      1507.62069810
  -V(xc)+E(xc)   XCENC  =      -589.94576889
  PAW double counting   =    161396.47061698  -159524.25166345
  entropy T*S    EENTRO =        -0.00000000
  eigenvalues    EBANDS =     -3598.76233853
  atomic energy  EATOM  =     47138.37786884
  Solvation  Ediel_sol  =         0.00000000
  ---------------------------------------------------
  free energy    TOTEN  =      -175.42642239 eV

  energy without entropy =     -175.42642239  energy(sigma->0) =     -175.42642239
  exchange ACFDT corr.  =         0.00000000  see jH, gK, PRB 81, 115126


--------------------------------------------------------------------------------------------------------




--------------------------------------- Iteration      1(  15)  ---------------------------------------


    POTLOK:  cpu time    0.2442: real time    0.2467
    SETDIJ:  cpu time    0.9203: real time    0.9206
     EDDAV:  cpu time   18.2248: real time   18.5959
       DOS:  cpu time    0.0009: real time    0.0009
    CHARGE:  cpu time    0.0729: real time    0.0731
    MIXING:  cpu time    0.0014: real time    0.0014
    --------------------------------------------
      LOOP:  cpu time   19.4645: real time   19.8386

 eigenvalue-minimisations  :   756
 total energy-change (2. order) : 0.2857310E-03  (-0.1119848E-03)
 number of electron     565.9927428 magnetization 
 augmentation part      143.1578881 magnetization 

 Free energy of the ion-electron system (eV)
  ---------------------------------------------------
  alpha Z        PSCENC =      1482.04539224
  Ewald energy   TEWEN  =    -31090.79345279
  -Hartree energ DENC   =    -16895.60167932
  -exchange      EXHF   =      1507.61161053
  -V(xc)+E(xc)   XCENC  =      -589.91693253
  PAW double counting   =    162027.72038893  -160155.53751547
  entropy T*S    EENTRO =        -0.00000000
  eigenvalues    EBANDS =     -3599.33181710
  atomic energy  EATOM  =     47138.37786884
  Solvation  Ediel_sol  =         0.00000000
  ---------------------------------------------------
  free energy    TOTEN  =      -175.42613666 eV

  energy without entropy =     -175.42613666  energy(sigma->0) =     -175.42613666
  exchange ACFDT corr.  =         0.00000000  see jH, gK, PRB 81, 115126


--------------------------------------------------------------------------------------------------------




--------------------------------------- Iteration      1(  16)  ---------------------------------------


    POTLOK:  cpu time    0.2453: real time    0.2477
    SETDIJ:  cpu time    0.9162: real time    0.9165
     EDDAV:  cpu time   17.7216: real time   17.8891
       DOS:  cpu time    0.0008: real time    0.0008
    CHARGE:  cpu time    0.0743: real time    0.0744
    MIXING:  cpu time    0.0013: real time    0.0013
    --------------------------------------------
      LOOP:  cpu time   18.9595: real time   19.1298

 eigenvalue-minimisations  :   724
 total energy-change (2. order) : 0.2234412E-04  (-0.4049421E-04)
 number of electron     565.9956452 magnetization 
 augmentation part      143.1574456 magnetization 

 Free energy of the ion-electron system (eV)
  ---------------------------------------------------
  alpha Z        PSCENC =      1482.04539224
  Ewald energy   TEWEN  =    -31090.79345279
  -Hartree energ DENC   =    -16895.25027411
  -exchange      EXHF   =      1507.59356859
  -V(xc)+E(xc)   XCENC  =      -589.90244565
  PAW double counting   =    162405.25942776  -160533.11155042
  entropy T*S    EENTRO =        -0.00000000
  eigenvalues    EBANDS =     -3599.64464877
  atomic energy  EATOM  =     47138.37786884
  Solvation  Ediel_sol  =         0.00000000
  ---------------------------------------------------
  free energy    TOTEN  =      -175.42611432 eV

  energy without entropy =     -175.42611432  energy(sigma->0) =     -175.42611432
  exchange ACFDT corr.  =         0.00000000  see jH, gK, PRB 81, 115126


--------------------------------------------------------------------------------------------------------




--------------------------------------- Iteration      1(  17)  ---------------------------------------


    POTLOK:  cpu time    0.2475: real time    0.2491
    SETDIJ:  cpu time    0.9163: real time    0.9167
     EDDAV:  cpu time   18.7417: real time   19.1845
       DOS:  cpu time    0.0008: real time    0.0008
    CHARGE:  cpu time    0.0731: real time    0.0733
    MIXING:  cpu time    0.0012: real time    0.0012
    --------------------------------------------
      LOOP:  cpu time   19.9806: real time   20.4256

 eigenvalue-minimisations  :   732
 total energy-change (2. order) :-0.1887048E-04  (-0.1508198E-04)
 number of electron     565.9973866 magnetization 
 augmentation part      143.1569821 magnetization 

 Free energy of the ion-electron system (eV)
  ---------------------------------------------------
  alpha Z        PSCENC =      1482.04539224
  Ewald energy   TEWEN  =    -31090.79345279
  -Hartree energ DENC   =    -16895.02354634
  -exchange      EXHF   =      1507.58198554
  -V(xc)+E(xc)   XCENC  =      -589.89542061
  PAW double counting   =    162635.77930287  -160763.65978457
  entropy T*S    EENTRO =        -0.00000000
  eigenvalues    EBANDS =     -3599.83847836
  atomic energy  EATOM  =     47138.37786884
  Solvation  Ediel_sol  =         0.00000000
  ---------------------------------------------------
  free energy    TOTEN  =      -175.42613319 eV

  energy without entropy =     -175.42613319  energy(sigma->0) =     -175.42613319
  exchange ACFDT corr.  =         0.00000000  see jH, gK, PRB 81, 115126


--------------------------------------------------------------------------------------------------------




--------------------------------------- Iteration      1(  18)  ---------------------------------------


    POTLOK:  cpu time    0.2446: real time    0.2469
    SETDIJ:  cpu time    0.9178: real time    0.9182
     EDDAV:  cpu time   17.7139: real time   17.8850
       DOS:  cpu time    0.0008: real time    0.0008
    CHARGE:  cpu time    0.0736: real time    0.0736
    MIXING:  cpu time    0.0013: real time    0.0013
    --------------------------------------------
      LOOP:  cpu time   18.9519: real time   19.1258

 eigenvalue-minimisations  :   708
 total energy-change (2. order) :-0.2211419E-04  (-0.7151455E-05)
 number of electron     565.9984314 magnetization 
 augmentation part      143.1566256 magnetization 

 Free energy of the ion-electron system (eV)
  ---------------------------------------------------
  alpha Z        PSCENC =      1482.04539224
  Ewald energy   TEWEN  =    -31090.79345279
  -Hartree energ DENC   =    -16894.87009693
  -exchange      EXHF   =      1507.57741976
  -V(xc)+E(xc)   XCENC  =      -589.89212031
  PAW double counting   =    162776.59995855  -160904.50090416
  entropy T*S    EENTRO =        -0.00000000
  eigenvalues    EBANDS =     -3599.97022050
  atomic energy  EATOM  =     47138.37786884
  Solvation  Ediel_sol  =         0.00000000
  ---------------------------------------------------
  free energy    TOTEN  =      -175.42615530 eV

  energy without entropy =     -175.42615530  energy(sigma->0) =     -175.42615530
  exchange ACFDT corr.  =         0.00000000  see jH, gK, PRB 81, 115126


--------------------------------------------------------------------------------------------------------




--------------------------------------- Iteration      1(  19)  ---------------------------------------


    POTLOK:  cpu time    0.2441: real time    0.2467
    SETDIJ:  cpu time    0.9149: real time    0.9157
     EDDAV:  cpu time   18.0734: real time   18.2763
       DOS:  cpu time    0.0008: real time    0.0008
    CHARGE:  cpu time    0.0726: real time    0.0728
    MIXING:  cpu time    0.0014: real time    0.0014
    --------------------------------------------
      LOOP:  cpu time   19.3072: real time   19.5137

 eigenvalue-minimisations  :   596
 total energy-change (2. order) :-0.1783980E-04  (-0.3775438E-05)
 number of electron     565.9990583 magnetization 
 augmentation part      143.1563643 magnetization 

 Free energy of the ion-electron system (eV)
  ---------------------------------------------------
  alpha Z        PSCENC =      1482.04539224
  Ewald energy   TEWEN  =    -31090.79345279
  -Hartree energ DENC   =    -16894.76639253
  -exchange      EXHF   =      1507.57599129
  -V(xc)+E(xc)   XCENC  =      -589.89062314
  PAW double counting   =    162862.30794933  -160990.22310911
  entropy T*S    EENTRO =        -0.00000000
  eigenvalues    EBANDS =     -3600.05979728
  atomic energy  EATOM  =     47138.37786884
  Solvation  Ediel_sol  =         0.00000000
  ---------------------------------------------------
  free energy    TOTEN  =      -175.42617314 eV

  energy without entropy =     -175.42617314  energy(sigma->0) =     -175.42617314
  exchange ACFDT corr.  =         0.00000000  see jH, gK, PRB 81, 115126


--------------------------------------------------------------------------------------------------------




--------------------------------------- Iteration      1(  20)  ---------------------------------------


    POTLOK:  cpu time    0.2452: real time    0.2475
    SETDIJ:  cpu time    0.9227: real time    0.9234
     EDDAV:  cpu time   17.6537: real time   18.1792
       DOS:  cpu time    0.0008: real time    0.0008
    CHARGE:  cpu time    0.0727: real time    0.0728
    MIXING:  cpu time    0.0013: real time    0.0013
    --------------------------------------------
      LOOP:  cpu time   18.8964: real time   19.4248

 eigenvalue-minimisations  :   572
 total energy-change (2. order) :-0.1232157E-04  (-0.2086062E-05)
 number of electron     565.9994345 magnetization 
 augmentation part      143.1561856 magnetization 

 Free energy of the ion-electron system (eV)
  ---------------------------------------------------
  alpha Z        PSCENC =      1482.04539224
  Ewald energy   TEWEN  =    -31090.79345279
  -Hartree energ DENC   =    -16894.69650826
  -exchange      EXHF   =      1507.57537571
  -V(xc)+E(xc)   XCENC  =      -589.89001951
  PAW double counting   =    162914.17804922  -161042.10302148
  entropy T*S    EENTRO =        -0.00000000
  eigenvalues    EBANDS =     -3600.11986944
  atomic energy  EATOM  =     47138.37786884
  Solvation  Ediel_sol  =         0.00000000
  ---------------------------------------------------
  free energy    TOTEN  =      -175.42618546 eV

  energy without entropy =     -175.42618546  energy(sigma->0) =     -175.42618546
  exchange ACFDT corr.  =         0.00000000  see jH, gK, PRB 81, 115126


--------------------------------------------------------------------------------------------------------




--------------------------------------- Iteration      1(  21)  ---------------------------------------


    POTLOK:  cpu time    0.2471: real time    0.2531
    SETDIJ:  cpu time    0.9174: real time    0.9195
     EDDAV:  cpu time   17.9670: real time   18.1636
       DOS:  cpu time    0.0064: real time    0.0083
    CHARGE:  cpu time    0.0747: real time    0.0790
    MIXING:  cpu time    0.0014: real time    0.0014
    --------------------------------------------
      LOOP:  cpu time   19.2139: real time   19.4249

 eigenvalue-minimisations  :   516
 total energy-change (2. order) :-0.7942268E-05  (-0.1109106E-05)
 number of electron     565.9996602 magnetization 
 augmentation part      143.1560459 magnetization 

 Free energy of the ion-electron system (eV)
  ---------------------------------------------------
  alpha Z        PSCENC =      1482.04539224
  Ewald energy   TEWEN  =    -31090.79345279
  -Hartree energ DENC   =    -16894.65082960
  -exchange      EXHF   =      1507.57496391
  -V(xc)+E(xc)   XCENC  =      -589.88984648
  PAW double counting   =    162945.62073530  -161073.55252723
  entropy T*S    EENTRO =        -0.00000000
  eigenvalues    EBANDS =     -3600.15849759
  atomic energy  EATOM  =     47138.37786884
  Solvation  Ediel_sol  =         0.00000000
  ---------------------------------------------------
  free energy    TOTEN  =      -175.42619340 eV

  energy without entropy =     -175.42619340  energy(sigma->0) =     -175.42619340
  exchange ACFDT corr.  =         0.00000000  see jH, gK, PRB 81, 115126


--------------------------------------------------------------------------------------------------------




--------------------------------------- Iteration      1(  22)  ---------------------------------------


    POTLOK:  cpu time    0.2555: real time    0.2611
    SETDIJ:  cpu time    0.9131: real time    0.9313
     EDDAV:  cpu time   17.7260: real time   17.9984
       DOS:  cpu time    0.0132: real time    0.0132
    --------------------------------------------
      LOOP:  cpu time   18.9079: real time   19.2040

 eigenvalue-minimisations  :   468
 total energy-change (2. order) :-0.4839829E-05  (-0.5857069E-06)
 number of electron     565.9996602 magnetization 
 augmentation part      143.1560459 magnetization 

 Free energy of the ion-electron system (eV)
  ---------------------------------------------------
  alpha Z        PSCENC =      1482.04539224
  Ewald energy   TEWEN  =    -31090.79345279
  -Hartree energ DENC   =    -16894.62065548
  -exchange      EXHF   =      1507.57445919
  -V(xc)+E(xc)   XCENC  =      -589.88989095
  PAW double counting   =    162964.72287615  -161092.65945420
  entropy T*S    EENTRO =        -0.00000000
  eigenvalues    EBANDS =     -3600.18334125
  atomic energy  EATOM  =     47138.37786884
  Solvation  Ediel_sol  =         0.00000000
  ---------------------------------------------------
  free energy    TOTEN  =      -175.42619824 eV

  energy without entropy =     -175.42619824  energy(sigma->0) =     -175.42619824
  exchange ACFDT corr.  =         0.00000000  see jH, gK, PRB 81, 115126


--------------------------------------------------------------------------------------------------------




 average (electrostatic) potential at core
  the test charge radii are     1.0698  1.1897
  (the norm of the test charge is              1.0000)
       1 -30.8085       2 -30.9972       3 -30.6555       4 -31.0706       5 -31.1214
       6 -30.5727       7 -31.9627       8 -30.3812       9 -30.3327      10 -30.5396
      11 -30.5349      12 -31.3167      13 -30.3936      14 -31.0990      15 -31.4038
      16 -30.6621      17 -30.7216      18 -31.3130      19 -30.6559      20 -30.5884
      21 -30.6484      22 -30.8875      23 -30.4085      24 -30.4800      25 -31.0270
      26 -30.8969      27 -31.4791      28 -30.5902      29 -30.6541      30 -30.6955
      31 -30.8286      32 -86.2647      33 -84.6377      34 -87.0435      35 -85.9580
      36 -86.2582      37 -86.2763      38 -86.5222      39 -86.3569      40 -87.0064
      41 -85.3593      42 -85.2977      43 -86.5555      44 -86.7831      45 -86.2214
      46 -86.7539      47 -86.8064      48 -86.3314      49 -85.3271      50 -86.5250
      51 -87.5707      52 -85.2843      53 -86.1897      54 -86.2955      55 -85.2898
      56 -87.3153      57 -85.6940      58 -87.0334      59 -86.9695      60 -85.1616
      61 -86.0906      62 -86.3048      63 -85.3326
 
 
 
 E-fermi :   2.5741     XC(G=0):  -6.4945     alpha+bet : -7.1617


 k-point     1 :       0.0000    0.0000    0.0000
  band No.  band energies     occupation 
      1     -13.0133      2.00000
      2     -12.7625      2.00000
      3     -12.4258      2.00000
      4     -12.0991      2.00000
      5     -12.0087      2.00000
      6     -11.8517      2.00000
      7     -11.8139      2.00000
      8     -11.6655      2.00000
      9     -11.6466      2.00000
     10     -11.4736      2.00000
     11     -11.2772      2.00000
     12     -11.2504      2.00000
     13     -11.1059      2.00000
     14     -11.0624      2.00000
     15     -10.9867      2.00000
     16     -10.9321      2.00000
     17     -10.9020      2.00000
     18     -10.8767      2.00000
     19     -10.7774      2.00000
     20     -10.7663      2.00000
     21     -10.7195      2.00000
     22     -10.7056      2.00000
     23     -10.6758      2.00000
     24     -10.6356      2.00000
[...]
     0.000000000  0.000000000 13.086768000     0.000000000  0.000000000  0.076413061

  length of vectors
    13.086768000 13.086768000 13.086768000     0.076413061  0.076413061  0.076413061


 FORCES acting on ions
    electron-ion (+dipol)            ewald-force                    non-local-force                 convergence-correction
 -----------------------------------------------------------------------------------------------
   0.210E+00 0.901E+00 -.818E+00   -.204E+00 -.879E+00 0.832E+00   0.319E-01 -.593E-01 -.457E-01   0.863E-03 0.211E-02 -.185E-02
   0.225E+00 -.136E+01 -.928E-01   -.245E+00 0.137E+01 0.902E-01   0.462E-01 -.555E-01 -.681E-02   0.938E-03 0.634E-03 -.165E-02
   0.417E+00 -.610E+00 -.408E+00   -.421E+00 0.629E+00 0.400E+00   0.240E-01 -.684E-01 -.423E-02   0.343E-03 0.193E-02 -.351E-02
   -.954E-01 0.627E+00 0.203E+00   0.926E-01 -.637E+00 -.204E+00   0.270E-01 -.133E-01 -.601E-02   -.235E-03 -.169E-03 -.168E-02
   0.739E+00 0.722E+00 -.323E+00   -.731E+00 -.740E+00 0.311E+00   -.351E-02 -.171E-01 -.580E-02   0.578E-03 0.295E-02 -.697E-03
   -.130E+00 -.136E+01 0.464E-01   0.129E+00 0.136E+01 -.568E-01   0.177E-01 -.334E-01 -.893E-02   -.764E-03 0.233E-03 -.149E-02
   -.707E-01 -.117E+01 -.820E-01   0.538E-01 0.117E+01 0.919E-01   0.422E-01 -.489E-01 -.215E-01   -.385E-02 -.142E-02 -.508E-03
   -.153E+02 0.262E+02 0.263E+02   0.141E+02 -.274E+02 -.276E+02   0.108E+01 0.115E+01 0.116E+01   0.648E-03 0.123E-02 -.341E-02
   0.154E+02 0.272E+02 -.264E+02   -.143E+02 -.285E+02 0.277E+02   -.106E+01 0.120E+01 -.116E+01   0.222E-02 0.109E-02 0.375E-02
   0.144E+02 -.257E+02 0.263E+02   -.132E+02 0.269E+02 -.275E+02   -.107E+01 -.116E+01 0.121E+01   -.135E-02 -.173E-03 -.102E-02
   -.146E+02 -.267E+02 -.267E+02   0.134E+02 0.279E+02 0.279E+02   0.107E+01 -.121E+01 -.117E+01   -.176E-02 0.231E-02 0.106E-02
   0.754E+01 0.519E+01 0.520E+01   -.764E+01 -.542E+01 -.540E+01   0.944E-01 0.202E+00 0.180E+00   0.220E-02 -.234E-02 -.105E-02
   -.737E+01 0.567E+01 -.501E+01   0.746E+01 -.588E+01 0.521E+01   -.908E-01 0.181E+00 -.197E+00   -.503E-03 -.167E-02 -.196E-02
   -.707E+01 -.532E+01 0.514E+01   0.713E+01 0.553E+01 -.533E+01   -.271E-01 -.211E+00 0.156E+00   0.140E-02 0.357E-04 0.516E-03
   0.767E+01 -.568E+01 -.512E+01   -.775E+01 0.587E+01 0.532E+01   0.122E+00 -.182E+00 -.196E+00   -.257E-03 0.113E-03 0.127E-02
   0.261E+02 -.141E+02 0.261E+02   -.273E+02 0.130E+02 -.274E+02   0.117E+01 0.105E+01 0.121E+01   0.229E-02 0.274E-02 -.240E-03
   0.271E+02 0.159E+02 -.261E+02   -.283E+02 -.148E+02 0.273E+02   0.119E+01 -.107E+01 -.120E+01   -.105E-02 0.178E-02 0.331E-02
   0.480E+01 0.591E+01 0.510E+01   -.503E+01 -.598E+01 -.530E+01   0.225E+00 0.476E-01 0.159E+00   0.305E-02 -.146E-02 0.309E-02
   0.512E+01 -.859E+01 -.514E+01   -.532E+01 0.868E+01 0.534E+01   0.203E+00 -.131E+00 -.140E+00   -.409E-03 -.573E-02 -.311E-02
   -.266E+02 0.159E+02 0.271E+02   0.279E+02 -.148E+02 -.283E+02   -.117E+01 -.108E+01 0.117E+01   -.426E-03 -.120E-02 -.355E-03
   -.266E+02 -.139E+02 -.265E+02   0.279E+02 0.128E+02 0.277E+02   -.120E+01 0.103E+01 -.118E+01   -.289E-03 0.601E-03 -.176E-03
   -.522E+01 -.785E+01 0.502E+01   0.543E+01 0.796E+01 -.523E+01   -.181E+00 -.117E+00 0.183E+00   -.113E-02 -.110E-02 -.107E-02
   -.571E+01 0.663E+01 -.490E+01   0.591E+01 -.668E+01 0.511E+01   -.177E+00 0.279E-01 -.206E+00   -.386E-03 0.124E-02 -.103E-02
   0.269E+02 0.270E+02 -.150E+02   -.281E+02 -.282E+02 0.139E+02   0.116E+01 0.121E+01 0.108E+01   0.805E-03 -.102E-02 -.829E-03
   0.553E+01 0.526E+01 0.711E+01   -.574E+01 -.547E+01 -.718E+01   0.187E+00 0.165E+00 0.608E-01   0.128E-02 0.113E-02 0.371E-02
   0.268E+02 -.270E+02 0.152E+02   -.281E+02 0.283E+02 -.141E+02   0.122E+01 -.116E+01 -.106E+01   0.145E-03 -.998E-03 0.161E-02
   0.503E+01 -.574E+01 -.774E+01   -.524E+01 0.593E+01 0.781E+01   0.183E+00 -.238E+00 -.432E-01   0.122E-02 -.128E-03 0.882E-03
   -.267E+02 0.267E+02 0.156E+02   0.279E+02 -.279E+02 -.145E+02   -.118E+01 0.118E+01 -.107E+01   -.289E-03 0.792E-03 0.257E-03
   -.503E+01 0.578E+01 -.792E+01   0.524E+01 -.597E+01 0.803E+01   -.203E+00 0.160E+00 -.976E-01   -.588E-03 -.558E-04 0.650E-03
   -.262E+02 -.259E+02 -.141E+02   0.275E+02 0.271E+02 0.130E+02   -.119E+01 -.117E+01 0.109E+01   -.230E-02 -.173E-02 0.186E-02
   -.528E+01 -.479E+01 0.691E+01   0.548E+01 0.501E+01 -.697E+01   -.165E+00 -.217E+00 0.437E-01   -.136E-02 -.218E-03 0.572E-03
   -.387E+00 0.397E+00 0.155E+02   0.372E+00 -.415E+00 -.162E+02   0.843E-02 0.195E-01 0.640E+00   0.102E-02 -.451E-03 0.460E-04
   0.675E+02 0.678E+02 -.666E+02   -.718E+02 -.722E+02 0.709E+02   0.399E+01 0.401E+01 -.395E+01   0.134E-02 0.704E-03 -.418E-04
   0.607E+01 -.205E+01 0.255E+01   -.638E+01 0.225E+01 -.280E+01   0.280E+00 -.189E+00 0.233E+00   0.733E-03 -.747E-03 -.162E-03
   0.406E+00 -.159E+02 -.225E+00   -.448E+00 0.166E+02 0.283E+00   0.376E-01 -.634E+00 -.524E-01   0.313E-04 -.574E-03 0.154E-02
   -.146E+01 0.556E+01 0.128E+01   0.164E+01 -.585E+01 -.150E+01   -.171E+00 0.265E+00 0.209E+00   -.680E-03 -.365E-03 0.214E-03
   -.159E+02 0.605E+00 0.127E+00   0.166E+02 -.621E+00 -.103E+00   -.662E+00 0.120E-01 -.198E-01   -.130E-02 0.109E-03 -.453E-04
   -.221E+01 -.285E+01 0.227E+01   0.231E+01 0.296E+01 -.239E+01   -.861E-01 -.976E-01 0.113E+00   -.960E-03 0.121E-03 0.110E-04
   -.189E+01 -.215E+01 -.586E+01   0.211E+01 0.236E+01 0.613E+01   -.203E+00 -.197E+00 -.259E+00   -.504E-03 -.519E-03 0.325E-03
   0.386E+00 0.148E+02 -.291E-01   -.446E+00 -.155E+02 0.323E-01   0.553E-01 0.599E+00 -.200E-02   -.317E-03 -.121E-02 0.304E-03
   0.567E+01 0.125E+01 -.159E+01   -.594E+01 -.146E+01 0.181E+01   0.243E+00 0.181E+00 -.206E+00   0.408E-02 -.658E-03 0.151E-02
   0.673E+02 -.668E+02 0.673E+02   -.717E+02 0.711E+02 -.716E+02   0.402E+01 -.400E+01 0.398E+01   0.238E-03 0.549E-03 -.139E-02
   0.858E-01 -.691E+00 -.153E+02   -.122E+00 0.766E+00 0.160E+02   0.284E-01 -.695E-01 -.609E+00   0.269E-03 0.874E-04 0.290E-03
   -.144E+01 0.119E+01 0.521E+01   0.164E+01 -.140E+01 -.548E+01   -.189E+00 0.192E+00 0.249E+00   0.379E-04 0.417E-03 -.485E-03
   -.296E+01 0.221E+01 -.325E+01   0.308E+01 -.234E+01 0.341E+01   -.115E+00 0.114E+00 -.152E+00   -.848E-03 0.114E-03 -.701E-03
   -.156E+02 -.846E-01 -.592E-02   0.163E+02 0.152E+00 -.971E-02   -.657E+00 -.584E-01 0.100E-01   0.595E-04 -.159E-03 0.444E-03
   -.273E+01 -.672E+01 -.246E+01   0.304E+01 0.710E+01 0.267E+01   -.285E+00 -.362E+00 -.190E+00   -.379E-03 -.588E-03 -.262E-03
   0.148E+02 0.188E+01 0.259E+00   -.155E+02 -.205E+01 -.313E+00   0.577E+00 0.149E+00 0.504E-01   -.102E-02 -.319E-03 -.381E-04
   0.142E+01 0.668E+01 -.117E+01   -.162E+01 -.703E+01 0.134E+01   0.183E+00 0.322E+00 -.157E+00   0.131E-02 0.252E-02 -.978E-03
   0.172E+01 -.223E+01 0.660E+01   -.191E+01 0.249E+01 -.700E+01   0.185E+00 -.239E+00 0.360E+00   0.177E-03 0.303E-03 -.980E-03
   0.212E+01 -.251E+01 -.322E+01   -.220E+01 0.255E+01 0.338E+01   0.578E-01 -.401E-01 -.149E+00   0.101E-02 -.104E-02 -.816E-03
   -.672E+02 0.675E+02 0.678E+02   0.716E+02 -.719E+02 -.722E+02   -.400E+01 0.397E+01 0.399E+01   0.553E-03 -.334E-03 0.817E-04
   -.128E+01 0.601E+00 -.152E+02   0.144E+01 -.635E+00 0.158E+02   -.159E+00 0.300E-01 -.596E+00   -.817E-03 0.435E-03 -.826E-03
   -.578E+00 -.152E+02 0.829E+00   0.659E+00 0.159E+02 -.911E+00   -.757E-01 -.599E+00 0.776E-01   -.644E-03 0.143E-03 -.414E-03
   -.612E+01 -.239E+01 -.159E+01   0.648E+01 0.265E+01 0.178E+01   -.334E+00 -.239E+00 -.172E+00   -.207E-02 0.639E-03 0.941E-03
   0.296E+01 0.186E+01 0.278E+01   -.309E+01 -.195E+01 -.290E+01   0.127E+00 0.745E-01 0.112E+00   -.751E-03 0.237E-02 0.186E-02
   0.202E+01 0.261E+01 -.614E+01   -.226E+01 -.294E+01 0.649E+01   0.211E+00 0.292E+00 -.315E+00   0.164E-03 0.118E-04 0.572E-03
   0.272E+01 -.481E+01 0.164E+01   -.302E+01 0.501E+01 -.186E+01   0.264E+00 -.178E+00 0.201E+00   0.735E-03 0.589E-03 -.673E-03
   0.147E+02 0.391E+00 0.154E+00   -.153E+02 -.336E+00 -.141E+00   0.554E+00 -.492E-01 -.159E-01   0.103E-02 0.145E-03 0.759E-03
   -.503E+01 0.128E+01 0.114E+01   0.528E+01 -.152E+01 -.132E+01   -.237E+00 0.222E+00 0.172E+00   -.107E-02 -.513E-03 -.796E-03
   0.204E+00 0.149E+02 0.225E+00   -.175E+00 -.156E+02 -.191E+00   -.213E-01 0.602E+00 -.272E-01   0.348E-03 -.258E-03 0.687E-04
   -.344E+00 -.339E+00 0.151E+02   0.372E+00 0.412E+00 -.158E+02   -.236E-01 -.723E-01 0.631E+00   -.138E-02 0.462E-03 -.817E-03
   -.667E+02 -.668E+02 -.672E+02   0.710E+02 0.710E+02 0.715E+02   -.398E+01 -.395E+01 -.403E+01   0.670E-03 0.469E-03 -.543E-03
 -----------------------------------------------------------------------------------------------
   0.238E+00 -.999E-01 -.764E-01   -.171E-12 0.171E-12 0.284E-13   0.715E-02 -.559E+00 0.113E-01   0.209E-02 0.396E-02 -.411E-02
 
 
 POSITION                                       TOTAL-FORCE (eV/Angst)
 -----------------------------------------------------------------------------------
      0.02580     13.06021      6.52387         0.000775     -0.000300     -0.001055
      0.02304      6.51258     13.07671         0.000059     -0.000126      0.000141
      0.01902      6.51016      6.53372        -0.001136      0.001128     -0.002102
      6.57713     13.06003     -0.01502        -0.001647      0.000134      0.001133
      6.55425     13.04854      6.52230        -0.000188      0.000510      0.000187
      6.55922      6.51015     -0.01920        -0.000091     -0.000245      0.000268
      6.56473      6.50861      6.53503        -0.001167     -0.001127     -0.000497
     13.00890      3.17855      3.19662        -0.000563      0.000402     -0.001041
      0.11907      3.17724      9.88719         0.000741     -0.000593      0.000991
      0.10263      9.86000      3.19040        -0.000399      0.000502      0.001603
     13.01398      9.86538      9.88139        -0.000574      0.000770      0.000785
      6.54516      3.22574      3.24331         0.000227     -0.000723     -0.000831
      6.56386      3.21949      9.82085         0.001110     -0.000090     -0.000164
      6.56994      9.80424      3.23747         0.000450      0.000742      0.001088
      6.56477      9.81158      9.81109        -0.000987      0.000665      0.002216
      3.20824     12.95773      3.19021         0.000682     -0.001213      0.001150
      3.21893      0.06951      9.87798        -0.000747     -0.000152      0.001340
      3.28032      6.51787      3.23553         0.002320     -0.000549      0.001835
      3.27625      6.51591      9.83862        -0.001441     -0.002315     -0.000254
      9.90563      0.07834      3.18901        -0.000281     -0.000147     -0.000819
      9.92015     12.97661      9.87955         0.000519      0.000121     -0.000782
      9.84771      6.52154      3.24665         0.000602     -0.000816      0.000322
      9.85569      6.51246      9.81412         0.000784      0.000826      0.000145
      3.21280      3.16154     -0.08193        -0.000018      0.001429      0.000861
      3.27435      3.23085      6.52487        -0.003595     -0.000009      0.001282
      3.21683      9.87660      0.07409        -0.001953     -0.000869      0.001785
      3.26676      9.78591      6.55470        -0.000367      0.000010      0.000867
      9.90383      3.18390      0.08388        -0.000447      0.001042      0.001148
      9.84463      3.21840      6.54951         0.000171     -0.001227      0.000609
      9.90172      9.85607     -0.09928        -0.000866     -0.000426      0.001475
      9.85060      9.80869      6.51663        -0.000014     -0.000324      0.000993
      1.65338      1.61364      4.87186        -0.001359      0.004554     -0.002386
      1.53556      1.48748     11.56713         0.000347      0.000609      0.008688
      1.64897      8.15039      4.89335         0.000983     -0.000368     -0.001303
      1.65035      8.17595     11.44620         0.002298      0.001403      0.000875
      8.19256      1.60590      4.89458         0.001813      0.002795      0.007704
      8.22658      1.61395     11.44280        -0.003938      0.000124      0.001277
      8.19332      8.15312      4.89531         0.001617      0.002336     -0.000115
      8.19572      8.15060     11.43745         0.001586     -0.001419     -0.003322
      1.64914      4.85976      1.63136         0.002781     -0.001219      0.000563
      1.65374      4.87934      8.17549        -0.001388     -0.004144      0.002917
      1.52104     11.54191      1.50484        -0.002557     -0.005422      0.002974
      1.64866     11.42898      8.19068        -0.001561      0.001357      0.000215
      8.19235      4.87821      1.62476        -0.000632      0.002779     -0.001131
      8.19599      4.87267      8.17802        -0.000807     -0.001318     -0.006540
      8.22602     11.43071      1.62759         0.001339      0.004521     -0.004255
      8.20948     11.43781      8.16700        -0.001496     -0.006829      0.003470
      4.90558      1.58935      1.62580         0.003407      0.002160      0.000470
      4.92121      1.60406      8.16568         0.003727      0.002456     -0.003596
      4.92211      8.16446      1.60759         0.005392     -0.002187     -0.005689
      4.92416      8.14425      8.18032        -0.004253      0.004071     -0.001772
     11.58420      1.50477      1.51186        -0.002474      0.003421     -0.002960
     11.48764      1.61153      8.19248        -0.005484      0.001506     -0.004230
     11.46988      8.16840      1.62396        -0.000582     -0.002584      0.001301
     11.47507      8.16534      8.16757        -0.001289      0.001676     -0.000742
      4.92057      4.88099      4.89402         0.007459     -0.004763      0.000649
      4.91867      4.85911     11.45152        -0.002194     -0.004191      0.004182
      4.91145     11.40996      4.89641        -0.003094      0.002980     -0.001580
      4.91237     11.43477     11.44011        -0.001247      0.001685     -0.005807
     11.46279      4.87342      4.90328        -0.001979      0.002995      0.000339
     11.47181      4.86170     11.44399         0.006743     -0.005846      0.001926
     11.46764     11.43564      4.86923         0.002278     -0.003208     -0.000217
     11.58519     11.54043     11.56798         0.002603      0.003042     -0.006584
 -----------------------------------------------------------------------------------
    total drift:                               -0.108277     -0.188000      0.041586


--------------------------------------------------------------------------------------------------------



  FREE ENERGIE OF THE ION-ELECTRON SYSTEM (eV)
  ---------------------------------------------------
  free  energy   TOTEN  =      -202.80230340 eV

  energy  without entropy=     -202.80230340  energy(sigma->0) =     -202.80230340
 
 d Force = 0.1414930E-04[ 0.308E-05, 0.252E-04]  d Energy = 0.1636752E-04-0.222E-05
 d Force = 0.8749580E-03[ 0.854E-03, 0.896E-03]  d Ewald  = 0.8749586E-03-0.560E-09


--------------------------------------------------------------------------------------------------------


    POTLOK:  cpu time    1.1771: real time    1.1867


--------------------------------------------------------------------------------------------------------


 Conjugate gradient step on ions:
 trial-energy change:   -0.000016  1 .order   -0.000014   -0.000025   -0.000003
  (g-gl).g = 0.182E-04      g.g   = 0.273E-04  gl.gl    = 0.361E-04
 g(Force)  = 0.273E-04   g(Stress)= 0.000E+00 ortho     = 0.251E-05
 gamma     =   0.50341
 trial     =   0.88365
 opt step  =   1.00649  (harmonic =   1.00649) maximal distance =0.00016524
 next E    =  -202.802301   (d E  =  -0.00001)


--------------------------------------------------------------------------------------------------------


  
 reached required accuracy - stopping structural energy minimisation
     LOOP+:  cpu time   95.0832: real time   97.0536
    4ORBIT:  cpu time    0.0000: real time    0.0000
 


 total charge     
 
# of ion       s       p       d       tot
------------------------------------------
    1        0.421   0.296   9.592  10.309
    2        0.421   0.296   9.592  10.309
    3        0.424   0.298   9.592  10.313
    4        0.421   0.296   9.592  10.309
    5        0.424   0.298   9.592  10.313
    6        0.424   0.298   9.592  10.314
    7        0.422   0.297   9.592  10.312
    8        0.426   0.295   9.591  10.313
    9        0.426   0.294   9.591  10.311
   10        0.426   0.293   9.591  10.310
   11        0.426   0.293   9.591  10.310
   12        0.422   0.297   9.592  10.312
   13        0.423   0.298   9.592  10.313
   14        0.422   0.297   9.592  10.311
   15        0.422   0.296   9.592  10.310
   16        0.426   0.292   9.591  10.310
   17        0.426   0.293   9.591  10.310
   18        0.422   0.297   9.592  10.311
   19        0.422   0.297   9.592  10.311
   20        0.427   0.295   9.591  10.313
   21        0.426   0.292   9.591  10.309
   22        0.422   0.297   9.592  10.311
   23        0.422   0.296   9.592  10.310
   24        0.426   0.294   9.591  10.311
   25        0.423   0.298   9.592  10.312
   26        0.426   0.293   9.591  10.310
   27        0.422   0.297   9.592  10.311
   28        0.426   0.295   9.591  10.312
   29        0.422   0.297   9.592  10.311
   30        0.426   0.293   9.591  10.310
   31        0.422   0.297   9.592  10.311
   32        1.289   2.309   0.017   3.615
   33        1.307   2.269   0.019   3.595
   34        1.290   2.310   0.017   3.617
   35        1.289   2.308   0.017   3.614
   36        1.290   2.311   0.017   3.618
   37        1.289   2.309   0.017   3.615
   38        1.289   2.311   0.017   3.618
   39        1.290   2.310   0.017   3.617
   40        1.289   2.309   0.017   3.615
   41        1.290   2.311   0.017   3.618
   42        1.307   2.268   0.019   3.595
   43        1.289   2.308   0.017   3.614
   44        1.290   2.311   0.017   3.618
   45        1.289   2.312   0.017   3.619
   46        1.289   2.308   0.017   3.615
   47        1.290   2.310   0.017   3.617
   48        1.289   2.308   0.017   3.614
   49        1.290   2.311   0.017   3.618
   50        1.290   2.310   0.017   3.617
   51        1.289   2.311   0.017   3.618
   52        1.307   2.271   0.019   3.597
   53        1.289   2.308   0.017   3.614
   54        1.289   2.308   0.017   3.614
   55        1.290   2.310   0.017   3.617
   56        1.289   2.312   0.017   3.619
   57        1.290   2.311   0.017   3.618
   58        1.290   2.310   0.017   3.617
   59        1.289   2.308   0.017   3.614
   60        1.290   2.311   0.017   3.618
   61        1.289   2.308   0.017   3.615
   62        1.289   2.309   0.017   3.615
   63        1.307   2.269   0.019   3.595
--------------------------------------------------
tot         54.468  82.913 297.900 435.282
 

 total amount of memory used by VASP MPI-rank0    77652. kBytes
=======================================================================

   base      :      30000. kBytes
   nonlr-proj:       3399. kBytes
   fftplans  :       6877. kBytes
   grid      :      11280. kBytes
   one-center:         46. kBytes
   HF        :        129. kBytes
   wavefun   :       2812. kBytes
   fock_wrk  :      23109. kBytes
 
  
  
 General timing and accounting informations for this job:
 ========================================================
  
                  Total CPU time used (sec):    12191.792
                            User time (sec):    12110.071
                          System time (sec):       81.721
                         Elapsed time (sec):    12482.950
  
                   Maximum memory used (kb):      305044.
                   Average memory used (kb):           0.
  
                          Minor page faults:       682172
                          Major page faults:           15
                 Voluntary context switches:        83947
