 vasp.6.1.1 19Jun20 (build Oct 26 2020 17:25:13) gamma-only                     
  
 executed on             LinuxIFC date 2021.02.18  04:42:52
 running on   48 total cores
 distrk:  each k-point on   48 cores,    1 groups
 distr:  one band on NCORE=  12 cores,    4 groups


--------------------------------------------------------------------------------------------------------


 INCAR:
 POTCAR:    PAW_PBE Cd 06Sep2000                  
 POTCAR:    PAW_PBE Te 08Apr2002                  
 POTCAR:    PAW_PBE Cd 06Sep2000                  
   VRHFIN =Cd : s2 d10                                                                              
   LEXCH  = PE                                                                                      
   EATOM  =  1293.1815 eV,   95.0462 Ry                                                             
                                                                                                    
   TITEL  = PAW_PBE Cd 06Sep2000                                                                    
   LULTRA =        F    use ultrasoft PP ?                                                          
   IUNSCR =        1    unscreen: 0-lin 1-nonlin 2-no                                               
   RPACOR =    2.000    partial core radius                                                         
   POMASS =  112.411; ZVAL   =   12.000    mass and valenz                                          
   RCORE  =    2.300    outmost cutoff radius                                                       
   RWIGS  =    2.980; RWIGS  =    1.577    wigner-seitz radius (au A)                               
   ENMAX  =  274.336; ENMIN  =  205.752 eV                                                          
   RCLOC  =    2.054    cutoff for local pot                                                        
   LCOR   =        T    correct aug charges                                                         
   LPAW   =        T    paw PP                                                                      
   EAUG   =  456.106                                                                                
   DEXC   =    0.000                                                                                
   RMAX   =    2.358    core radius for proj-oper                                                   
   RAUG   =    1.300    factor for augmentation sphere                                              
   RDEP   =    2.450    radius for radial grids                                                     
   RDEPT  =    1.955    core radius for aug-charge                                                  
                                                                                                    
   Atomic configuration                                                                             
   12 entries                                                                                       
     n  l   j            E        occ.                                                              
     1  0  0.50    -26519.7817   2.0000                                                             
     2  0  0.50     -3936.9612   2.0000                                                             
     2  1  1.50     -3532.2230   6.0000                                                             
     3  0  0.50      -733.7908   2.0000                                                             
     3  1  1.50      -601.0792   6.0000                                                             
     3  2  2.50      -393.5307  10.0000                                                             
     4  0  0.50      -105.8977   2.0000                                                             
     4  1  1.50       -66.9488   6.0000                                                             
     4  2  2.50       -11.7331  10.0000                                                             
     5  0  0.50        -5.6592   2.0000                                                             
     5  1  0.50        -1.3606   0.0000                                                             
     4  3  2.50        -1.3606   0.0000                                                             
   Description                                                                                      
     l       E           TYP  RCUT    TYP  RCUT                                                     
     2    -11.7331479     23  2.300                                                                 
     2    -13.0937305     23  2.300                                                                 
     0     -5.6591502     23  2.300                                                                 
     0     -1.5561433     23  2.300                                                                 
     1     -2.7211652     23  2.300                                                                 
     1      8.3548275     23  2.300                                                                 
  local pseudopotential read in
  partial core-charges read in
  partial kinetic energy density read in
  atomic valenz-charges read in
  non local Contribution for L=           2  read in
    real space projection operators read in
  non local Contribution for L=           2  read in
    real space projection operators read in
  non local Contribution for L=           0  read in
    real space projection operators read in
  non local Contribution for L=           0  read in
    real space projection operators read in
  non local Contribution for L=           1  read in
    real space projection operators read in
  non local Contribution for L=           1  read in
    real space projection operators read in
    PAW grid and wavefunctions read in
 
   number of l-projection  operators is LMAX  =           6
   number of lm-projection operators is LMMAX =          18
 
 POTCAR:    PAW_PBE Te 08Apr2002                  
   VRHFIN =Te: s2p4                                                                                 
   LEXCH  = PE                                                                                      
   EATOM  =   223.2721 eV,   16.4100 Ry                                                             
                                                                                                    
   TITEL  = PAW_PBE Te 08Apr2002                                                                    
   LULTRA =        F    use ultrasoft PP ?                                                          
   IUNSCR =        1    unscreen: 0-lin 1-nonlin 2-no                                               
   RPACOR =    2.200    partial core radius                                                         
   POMASS =  127.600; ZVAL   =    6.000    mass and valenz                                          
   RCORE  =    2.300    outmost cutoff radius                                                       
   RWIGS  =    2.900; RWIGS  =    1.535    wigner-seitz radius (au A)                               
   ENMAX  =  174.982; ENMIN  =  131.236 eV                                                          
   ICORE  =        3    local potential                                                             
   LCOR   =        T    correct aug charges                                                         
   LPAW   =        T    paw PP                                                                      
   EAUG   =  368.792                                                                                
   DEXC   =    0.000                                                                                
   RMAX   =    2.345    core radius for proj-oper                                                   
   RAUG   =    1.300    factor for augmentation sphere                                              
   RDEP   =    2.397    radius for radial grids                                                     
   RDEPT  =    2.174    core radius for aug-charge                                                  
                                                                                                    
   Atomic configuration                                                                             
   13 entries                                                                                       
     n  l   j            E        occ.                                                              
     1  0  0.50    -31621.2075   2.0000                                                             
     2  0  0.50     -4848.7941   2.0000                                                             
     2  1  1.50     -4352.1960   6.0000                                                             
     3  0  0.50      -964.9612   2.0000                                                             
     3  1  1.50      -803.6179   6.0000                                                             
     3  2  2.50      -559.8710  10.0000                                                             
     4  0  0.50      -164.3522   2.0000                                                             
     4  1  1.50      -114.3756   6.0000                                                             
     4  2  2.50       -41.6483  10.0000                                                             
     5  0  0.50       -15.1072   2.0000                                                             
     5  1  0.50        -5.9526   4.0000                                                             
     5  2  1.50        -5.4423   0.0000                                                             
     4  3  2.50        -5.4423   0.0000                                                             
   Description                                                                                      
     l       E           TYP  RCUT    TYP  RCUT                                                     
     0    -15.1072389     23  2.300                                                                 
     0    -16.4678215     23  2.300                                                                 
     1     -5.9526306     23  2.300                                                                 
     1     -2.4873968     23  2.300                                                                 
     2     -5.4423304     23  2.300                                                                 
     3     -1.3605826     23  2.300                                                                 
  local pseudopotential read in
  partial core-charges read in
  partial kinetic energy density read in
  atomic valenz-charges read in
  non local Contribution for L=           0  read in
    real space projection operators read in
  non local Contribution for L=           0  read in
    real space projection operators read in
  non local Contribution for L=           1  read in
    real space projection operators read in
  non local Contribution for L=           1  read in
    real space projection operators read in
  non local Contribution for L=           2  read in
    real space projection operators read in
    PAW grid and wavefunctions read in
 
   number of l-projection  operators is LMAX  =           5
   number of lm-projection operators is LMMAX =          13
 
 Optimization of the real space projectors (new method)

 maximal supplied QI-value         = 16.25
 optimisation between [QCUT,QGAM] = [ 10.73, 21.61] = [ 32.22,130.83] Ry 
 Optimized for a Real-space Cutoff    1.34 Angstroem

   l    n(q)    QCUT    max X(q) W(low)/X(q) W(high)/X(q)  e(spline) 
   2      8    10.726    73.106    0.62E-03    0.58E-03    0.13E-06
   2      8    10.726    71.731    0.63E-03    0.59E-03    0.13E-06
   0      9    10.726   146.509    0.37E-03    0.31E-03    0.93E-07
   0      9    10.726    95.017    0.35E-03    0.30E-03    0.90E-07
   1      8    10.726    36.165    0.40E-03    0.62E-04    0.20E-06
   1      8    10.726    31.530    0.37E-03    0.46E-04    0.19E-06
 Optimization of the real space projectors (new method)

 maximal supplied QI-value         = 16.25
 optimisation between [QCUT,QGAM] = [ 10.73, 21.61] = [ 32.22,130.83] Ry 
 Optimized for a Real-space Cutoff    1.26 Angstroem

   l    n(q)    QCUT    max X(q) W(low)/X(q) W(high)/X(q)  e(spline) 
   0      8    10.726   224.858    0.42E-03    0.29E-03    0.13E-06
   0      8    10.726   205.313    0.42E-03    0.29E-03    0.14E-06
   1      8    10.726   119.695    0.28E-03    0.65E-03    0.18E-06
   1      8    10.726    84.282    0.28E-03    0.64E-03    0.18E-06
   2      7    10.726     5.599    0.26E-03    0.18E-03    0.37E-07
  PAW_PBE Cd 06Sep2000                  :
 energy of atom  1       EATOM=-1293.1815
 kinetic energy error for atom=    0.0084 (will be added to EATOM!!)
  PAW_PBE Te 08Apr2002                  :
 energy of atom  2       EATOM= -223.2721
 kinetic energy error for atom=    0.0008 (will be added to EATOM!!)
 
 
 POSCAR: vac_1_Cd[0. 0. 0.]_KV=-dNELECT=0
  positions in direct lattice
  No initial velocities read in
 exchange correlation table for  LEXCH =        8
   RHO(1)=    0.500       N(1)  =     2000
   RHO(2)=  100.500       N(2)  =     4000
 


--------------------------------------------------------------------------------------------------------


 ion  position               nearest neighbor table
   1  0.000  0.000  0.500-  32 2.83  43 2.83  53 2.83  62 2.83
   2  0.000  0.500  0.000-  35 2.83  40 2.83  54 2.83  61 2.83
   3  0.000  0.500  0.500-  34 2.83  41 2.83  55 2.83  60 2.83
   4  0.500  0.000  0.000-  37 2.83  46 2.83  48 2.83  59 2.83
   5  0.500  0.000  0.500-  36 2.83  47 2.83  49 2.83  58 2.83
   6  0.500  0.500  0.000-  39 2.83  44 2.83  50 2.83  57 2.83
   7  0.500  0.500  0.500-  38 2.83  45 2.83  51 2.83  56 2.83
   8  0.000  0.250  0.250-  32 2.83  40 2.83  52 2.83  60 2.83
   9  0.000  0.250  0.750-  33 2.83  41 2.83  53 2.83  61 2.83
  10  0.000  0.750  0.250-  34 2.83  42 2.83  54 2.83  62 2.83
  11  0.000  0.750  0.750-  35 2.83  43 2.83  55 2.83  63 2.83
  12  0.500  0.250  0.250-  36 2.83  44 2.83  48 2.83  56 2.83
  13  0.500  0.250  0.750-  37 2.83  45 2.83  49 2.83  57 2.83
  14  0.500  0.750  0.250-  38 2.83  46 2.83  50 2.83  58 2.83
  15  0.500  0.750  0.750-  39 2.83  47 2.83  51 2.83  59 2.83
  16  0.250  0.000  0.250-  32 2.83  42 2.83  48 2.83  58 2.83
  17  0.250  0.000  0.750-  33 2.83  43 2.83  49 2.83  59 2.83
  18  0.250  0.500  0.250-  34 2.83  40 2.83  50 2.83  56 2.83
  19  0.250  0.500  0.750-  35 2.83  41 2.83  51 2.83  57 2.83
  20  0.750  0.000  0.250-  36 2.83  46 2.83  52 2.83  62 2.83
  21  0.750  0.000  0.750-  37 2.83  47 2.83  53 2.83  63 2.83
  22  0.750  0.500  0.250-  38 2.83  44 2.83  54 2.83  60 2.83
  23  0.750  0.500  0.750-  39 2.83  45 2.83  55 2.83  61 2.83
  24  0.250  0.250  0.000-  33 2.83  40 2.83  48 2.83  57 2.83
  25  0.250  0.250  0.500-  32 2.83  41 2.83  49 2.83  56 2.83
  26  0.250  0.750  0.000-  35 2.83  42 2.83  50 2.83  59 2.83
  27  0.250  0.750  0.500-  34 2.83  43 2.83  51 2.83  58 2.83
  28  0.750  0.250  0.000-  37 2.83  44 2.83  52 2.83  61 2.83
  29  0.750  0.250  0.500-  36 2.83  45 2.83  53 2.83  60 2.83
  30  0.750  0.750  0.000-  39 2.83  46 2.83  54 2.83  63 2.83
  31  0.750  0.750  0.500-  38 2.83  47 2.83  55 2.83  62 2.83
  32  0.125  0.125  0.375-   1 2.83   8 2.83  16 2.83  25 2.83
  33  0.125  0.125  0.875-   9 2.83  17 2.83  24 2.83
  34  0.125  0.625  0.375-   3 2.83  10 2.83  18 2.83  27 2.83
  35  0.125  0.625  0.875-   2 2.83  11 2.83  19 2.83  26 2.83
  36  0.625  0.125  0.375-   5 2.83  12 2.83  20 2.83  29 2.83
  37  0.625  0.125  0.875-   4 2.83  13 2.83  21 2.83  28 2.83
  38  0.625  0.625  0.375-   7 2.83  14 2.83  22 2.83  31 2.83
  39  0.625  0.625  0.875-   6 2.83  15 2.83  23 2.83  30 2.83
  40  0.125  0.375  0.125-   2 2.83   8 2.83  18 2.83  24 2.83
  41  0.125  0.375  0.625-   3 2.83   9 2.83  19 2.83  25 2.83
  42  0.125  0.875  0.125-  10 2.83  16 2.83  26 2.83
  43  0.125  0.875  0.625-   1 2.83  11 2.83  17 2.83  27 2.83
  44  0.625  0.375  0.125-   6 2.83  12 2.83  22 2.83  28 2.83
  45  0.625  0.375  0.625-   7 2.83  13 2.83  23 2.83  29 2.83
  46  0.625  0.875  0.125-   4 2.83  14 2.83  20 2.83  30 2.83
  47  0.625  0.875  0.625-   5 2.83  15 2.83  21 2.83  31 2.83
  48  0.375  0.125  0.125-   4 2.83  12 2.83  16 2.83  24 2.83
  49  0.375  0.125  0.625-   5 2.83  13 2.83  17 2.83  25 2.83
  50  0.375  0.625  0.125-   6 2.83  14 2.83  18 2.83  26 2.83
  51  0.375  0.625  0.625-   7 2.83  15 2.83  19 2.83  27 2.83
  52  0.875  0.125  0.125-   8 2.83  20 2.83  28 2.83
  53  0.875  0.125  0.625-   1 2.83   9 2.83  21 2.83  29 2.83
  54  0.875  0.625  0.125-   2 2.83  10 2.83  22 2.83  30 2.83
  55  0.875  0.625  0.625-   3 2.83  11 2.83  23 2.83  31 2.83
  56  0.375  0.375  0.375-   7 2.83  12 2.83  18 2.83  25 2.83
  57  0.375  0.375  0.875-   6 2.83  13 2.83  19 2.83  24 2.83
  58  0.375  0.875  0.375-   5 2.83  14 2.83  16 2.83  27 2.83
  59  0.375  0.875  0.875-   4 2.83  15 2.83  17 2.83  26 2.83
  60  0.875  0.375  0.375-   3 2.83   8 2.83  22 2.83  29 2.83
  61  0.875  0.375  0.875-   2 2.83   9 2.83  23 2.83  28 2.83
  62  0.875  0.875  0.375-   1 2.83  10 2.83  20 2.83  31 2.83
  63  0.875  0.875  0.875-  11 2.83  21 2.83  30 2.83
 

IMPORTANT INFORMATION: All symmetrisations will be switched off!
NOSYMM: (Re-)initialisation of all symmetry stuff for point group C_1.


----------------------------------------------------------------------------------------

                                     Primitive cell                                     

  volume of cell :    2241.2856

  direct lattice vectors                    reciprocal lattice vectors
    13.086768000  0.000000000  0.000000000     0.076413061  0.000000000  0.000000000
     0.000000000 13.086768000  0.000000000     0.000000000  0.076413061  0.000000000
     0.000000000  0.000000000 13.086768000     0.000000000  0.000000000  0.076413061

  length of vectors
    13.086768000 13.086768000 13.086768000     0.076413061  0.076413061  0.076413061

  position of ions in fractional coordinates (direct lattice)
     0.000000000  0.000000000  0.500000000
     0.000000000  0.500000000  0.000000000
     0.000000000  0.500000000  0.500000000
     0.500000000  0.000000000  0.000000000
     0.500000000  0.000000000  0.500000000
     0.500000000  0.500000000  0.000000000
     0.500000000  0.500000000  0.500000000
     0.000000000  0.250000000  0.250000000
     0.000000000  0.250000000  0.750000000
     0.000000000  0.750000000  0.250000000
     0.000000000  0.750000000  0.750000000
     0.500000000  0.250000000  0.250000000
     0.500000000  0.250000000  0.750000000
     0.500000000  0.750000000  0.250000000
     0.500000000  0.750000000  0.750000000
     0.250000000  0.000000000  0.250000000
     0.250000000  0.000000000  0.750000000
     0.250000000  0.500000000  0.250000000
     0.250000000  0.500000000  0.750000000
     0.750000000  0.000000000  0.250000000
     0.750000000  0.000000000  0.750000000
     0.750000000  0.500000000  0.250000000
     0.750000000  0.500000000  0.750000000
     0.250000000  0.250000000  0.000000000
     0.250000000  0.250000000  0.500000000
     0.250000000  0.750000000  0.000000000
     0.250000000  0.750000000  0.500000000
     0.750000000  0.250000000  0.000000000
     0.750000000  0.250000000  0.500000000
     0.750000000  0.750000000  0.000000000
     0.750000000  0.750000000  0.500000000
     0.125000000  0.125000000  0.375000000
     0.125000000  0.125000000  0.875000000
     0.125000000  0.625000000  0.375000000
     0.125000000  0.625000000  0.875000000
     0.625000000  0.125000000  0.375000000
     0.625000000  0.125000000  0.875000000
     0.625000000  0.625000000  0.375000000
     0.625000000  0.625000000  0.875000000
     0.125000000  0.375000000  0.125000000
     0.125000000  0.375000000  0.625000000
     0.125000000  0.875000000  0.125000000
     0.125000000  0.875000000  0.625000000
     0.625000000  0.375000000  0.125000000
     0.625000000  0.375000000  0.625000000
     0.625000000  0.875000000  0.125000000
     0.625000000  0.875000000  0.625000000
     0.375000000  0.125000000  0.125000000
     0.375000000  0.125000000  0.625000000
     0.375000000  0.625000000  0.125000000
     0.375000000  0.625000000  0.625000000
     0.875000000  0.125000000  0.125000000
     0.875000000  0.125000000  0.625000000
     0.875000000  0.625000000  0.125000000
     0.875000000  0.625000000  0.625000000
     0.375000000  0.375000000  0.375000000
     0.375000000  0.375000000  0.875000000
     0.375000000  0.875000000  0.375000000
     0.375000000  0.875000000  0.875000000
     0.875000000  0.375000000  0.375000000
     0.875000000  0.375000000  0.875000000
     0.875000000  0.875000000  0.375000000
     0.875000000  0.875000000  0.875000000

  ion indices of the primitive-cell ions
   primitive index   ion index
                 1           1
                 2           2
                 3           3
                 4           4
                 5           5
                 6           6
                 7           7
                 8           8
                 9           9
                10          10
                11          11
                12          12
                13          13
                14          14
                15          15
                16          16
                17          17
                18          18
                19          19
                20          20
                21          21
                22          22
                23          23
                24          24
                25          25
                26          26
                27          27
                28          28
                29          29
                30          30
                31          31
                32          32
                33          33
                34          34
                35          35
                36          36
                37          37
                38          38
                39          39
                40          40
                41          41
                42          42
                43          43
                44          44
                45          45
                46          46
                47          47
                48          48
                49          49
                50          50
                51          51
                52          52
                53          53
                54          54
                55          55
                56          56
                57          57
                58          58
                59          59
                60          60
                61          61
                62          62
                63          63

----------------------------------------------------------------------------------------

 
 
 KPOINTS: Kpoints from DefectsWithTheBoys.vasp_gam

Automatic generation of k-mesh.
Space group operators:
 irot       det(A)        alpha          n_x          n_y          n_z        tau_x        tau_y        tau_z
    1     1.000000     0.000000     1.000000     0.000000     0.000000     0.000000     0.000000     0.000000
 
 Subroutine IBZKPT returns following result:
 ===========================================
 
 Found      1 irreducible k-points:
 
 Following reciprocal coordinates:
            Coordinates               Weight
  0.000000  0.000000  0.000000      1.000000
 
 Following cartesian coordinates:
            Coordinates               Weight
  0.000000  0.000000  0.000000      1.000000
 
 
 Subroutine IBZKPT_HF returns following result:
 ==============================================
 
 Found      1 k-points in 1st BZ
 the following      1 k-points will be used (e.g. in the exchange kernel)
 Following reciprocal coordinates:   # in IRBZ
  0.000000  0.000000  0.000000    1.00000000   1 t-inv F


--------------------------------------------------------------------------------------------------------




 Dimension of arrays:
   k-points           NKPTS =      1   k-points in BZ     NKDIM =      1   number of bands    NBANDS=    340
   number of dos      NEDOS =   2000   number of ions     NIONS =     63
   non local maximal  LDIM  =      6   non local SUM 2l+1 LMDIM =     18
   total plane-waves  NPLWV = 884736
   max r-space proj   IRMAX =   4034   max aug-charges    IRDMAX=  23156
   dimension x,y,z NGX =    96 NGY =   96 NGZ =   96
   dimension x,y,z NGXF=   192 NGYF=  192 NGZF=  192
   support grid    NGXF=   192 NGYF=  192 NGZF=  192
   ions per type =              31  32
   NGX,Y,Z   is equivalent  to a cutoff of  12.20, 12.20, 12.20 a.u.
   NGXF,Y,Z  is equivalent  to a cutoff of  24.39, 24.39, 24.39 a.u.

 SYSTEM =  unknown system                          
 POSCAR =  vac_1_Cd[0. 0. 0.]_KV=-dNELECT=0        

 Startparameter for this run:
   NWRITE =      2    write-flag & timer
   PREC   = accura    normal or accurate (medium, high low for compatibility)
   ISTART =      0    job   : 0-new  1-cont  2-samecut
   ICHARG =      1    charge: 1-file 2-atom 10-const
   ISPIN  =      1    spin polarized calculation?
   LNONCOLLINEAR =      F non collinear calculations
   LSORBIT =      F    spin-orbit coupling
   INIWAV =      1    electr: 0-lowe 1-rand  2-diag
   LASPH  =      T    aspherical Exc in radial PAW
   METAGGA=      F    non-selfconsistent MetaGGA calc.

 Electronic Relaxation 1
   ENCUT  =  450.0 eV  33.07 Ry    5.75 a.u.  22.64 22.64 22.64*2*pi/ulx,y,z
   ENINI  =  450.0     initial cutoff
   ENAUG  =  456.1 eV  augmentation charge cutoff
   NELM   =    100;   NELMIN=  2; NELMDL= -5     # of ELM steps 
   EDIFF  = 0.5E-05   stopping-criterion for ELM
   LREAL  =      T    real-space projection
   NLSPLINE    = F    spline interpolate recip. space projectors
   LCOMPAT=      F    compatible to vasp.4.4
   GGA_COMPAT  = T    GGA compatible to vasp.4.4-vasp.4.6
   LMAXPAW     = -100 max onsite density
   LMAXMIX     =    2 max onsite mixed and CHGCAR
   VOSKOWN=      0    Vosko Wilk Nusair interpolation
   ROPT   =   -0.00100  -0.00100
 Ionic relaxation
   EDIFFG = -.1E-01   stopping-criterion for IOM
   NSW    =    300    number of steps for IOM
   NBLOCK =      1;   KBLOCK =    300    inner block; outer block 
   IBRION =      2    ionic relax: 0-MD 1-quasi-New 2-CG
   NFREE  =      1    steps in history (QN), initial steepest desc. (CG)
   ISIF   =      2    stress and relaxation
   IWAVPR =     11    prediction:  0-non 1-charg 2-wave 3-comb
   ISYM   =      0    0-nonsym 1-usesym 2-fastsym
   LCORR  =      T    Harris-Foulkes like correction to forces

   POTIM  = 0.2000    time-step for ionic-motion
   TEIN   =    0.0    initial temperature
   TEBEG  =    0.0;   TEEND  =   0.0 temperature during run
   SMASS  =  -3.00    Nose mass-parameter (am)
   estimated Nose-frequenzy (Omega)   =  0.10E-29 period in steps = 0.31E+47 mass=  -0.391E-26a.u.
   SCALEE = 1.0000    scale energy and forces
   NPACO  =    256;   APACO  = 16.0  distance and # of slots for P.C.
   PSTRESS=    0.0 pullay stress

  Mass of Ions in am
   POMASS = 112.41127.60
  Ionic Valenz
   ZVAL   =  12.00  6.00
  Atomic Wigner-Seitz radii
   RWIGS  =  -1.00 -1.00
  virtual crystal weights 
   VCA    =   1.00  1.00
   NELECT =     564.0000    total number of electrons
   NUPDOWN=       0.0000    fix difference up-down

 DOS related values:
   EMIN   =  10.00;   EMAX   =-10.00  energy-range for DOS
   EFERMI =   0.00
   ISMEAR =     0;   SIGMA  =   0.05  broadening in eV -4-tet -1-fermi 0-gaus

 Electronic relaxation 2 (details)
   IALGO  =     38    algorithm
   LDIAG  =      T    sub-space diagonalisation (order eigenvalues)
   LSUBROT=      F    optimize rotation matrix (better conditioning)
   TURBO    =      0    0=normal 1=particle mesh
   IRESTART =      0    0=no restart 2=restart with 2 vectors
   NREBOOT  =      0    no. of reboots
   NMIN     =      0    reboot dimension
   EREF     =   0.00    reference energy to select bands
   IMIX   =      1    mixing-type and parameters
     AMIX     =   0.40;   BMIX     =  1.00
     AMIX_MAG =   1.60;   BMIX_MAG =  1.00
     AMIN     =   0.10
     WC   =   100.;   INIMIX=   1;  MIXPRE=   1;  MAXMIX= -45

 Intra band minimization:
   WEIMIN = 0.0010     energy-eigenvalue tresh-hold
   EBREAK =  0.37E-08  absolut break condition
   DEPER  =   0.30     relativ break condition  

   TIME   =   0.40     timestep for ELM

  volume/ion in A,a.u.               =      35.58       240.08
  Fermi-wavevector in a.u.,A,eV,Ry     =   1.033559  1.953144 14.534357  1.068245
  Thomas-Fermi vector in A             =   2.167812
 
 Write flags
   LWAVE        =      F    write WAVECAR
   LDOWNSAMPLE  =      F    k-point downsampling of WAVECAR
   LCHARG       =      T    write CHGCAR
   LVTOT        =      F    write LOCPOT, total local potential
   LVHAR        =      F    write LOCPOT, Hartree potential only
   LELF         =      F    write electronic localiz. function (ELF)
   LORBIT       =     11    0 simple, 1 ext, 2 COOP (PROOUT), +10 PAW based schemes


 Dipole corrections
   LMONO  =      F    monopole corrections only (constant potential shift)
   LDIPOL =      F    correct potential (dipole corrections)
   IDIPOL =      0    1-x, 2-y, 3-z, 4-all directions 
   EPSILON=  1.0000000 bulk dielectric constant

 Exchange correlation treatment:
   GGA     =    --    GGA type
   LEXCH   =     8    internal setting for exchange type
   VOSKOWN=      0    Vosko Wilk Nusair interpolation
   EXXOEP  =     0    0=HF, 1=EXX-LHF (local Hartree Fock) 2=EXX OEP
   LHFCALC =     T    Hartree Fock is set to
   LSYMGRAD=     F    symmetrize gradient (conserves proper symmetry)
   PRECFOCK=fast      Normal, Fast or Accurate (Low or Medium for compatibility)
   LRHFCALC=     F    long range Hartree Fock
   LRSCOR  =     F    long range correlation only (use DFT for short range part)
   LTHOMAS =     F    Thomas Fermi screening in HF
   LMODELHF=     F    short range full HF, long range fraction AEXX
   LFOCKACE=     T    use Adeptively-Compressed-Exchange operator
   ENCUT4O =  -1.0   cutoff for four orbital integrals eV
   LMAXFOCK=     4    L truncation for augmentation on plane wave grid
   LMAXFOCKAE=  -1    L truncation for all-electron charge restoration on plane wave grid
   NMAXFOCKAE=   1    number of basis functions for all-electron charge restoration
   LFOCKAEDFT=     F  apply the AE augmentation even for DFT
   NKREDX  =     1    reduce k-point grid by
   NKREDY  =     1    reduce k-point grid by
   NKREDZ  =     1    reduce k-point grid by
   SHIFTRED=     F    shift reduced grid of Gamma
   HFKIDENT=     F    idential grid for each k-point
   ODDONLY =     F    use only odd q-grid points
   EVENONLY=     F    use only even q-grid points
   HFALPHA =   -1.0000 decay constant for conv. correction
   MCALPHA =    0.0000 extent of test-charge in conv. correction in multipole expansion
   AEXX    =    0.3450 exact exchange contribution
   HFSCREEN=    0.2000 screening length (either q_TF or 0.3 A-1)
   HFSCREENC=   0.2000 screening length for correlation (either q_TF or 0.3 A-1)
   HFRCUT  =    0.0000 spherical cutoff for potential kernel
   ALDAX   =    0.6550 LDA exchange part
   AGGAX   =    0.6550 GGA exchange part
   ALDAC   =    1.0000 LDA correlation
   AGGAC   =    1.0000 GGA correlation
   ENCUTFOCK=  -1.0 apply spherical cutoff to Coloumb kernel
   NBANDSGWLOW=     1    first orbital included in HF term
   NBLOCK_FOCK=    64    blocking factor in FOCK_ACC
 Linear response parameters
   LEPSILON=     F    determine dielectric tensor
   LRPA    =     F    only Hartree local field effects (RPA)
   LNABLA  =     F    use nabla operator in PAW spheres
   LVEL    =     F    velocity operator in full k-point grid
   LINTERFAST=   F  fast interpolation
   KINTER  =     0    interpolate to denser k-point grid
   CSHIFT  =0.1000    complex shift for real part using Kramers Kronig
   OMEGAMAX=  -1.0    maximum frequency
   DEG_THRESHOLD= 0.2000000E-02 threshold for treating states as degnerate
   RTIME   =   -0.100 relaxation time in fs
  (WPLASMAI=    0.000 imaginary part of plasma frequency in eV, 0.658/RTIME)
   DFIELD  = 0.0000000 0.0000000 0.0000000 field for delta impulse in time
 
 Orbital magnetization related:
   ORBITALMAG=     F  switch on orbital magnetization
   LCHIMAG   =     F  perturbation theory with respect to B field
   DQ        =  0.001000  dq finite difference perturbation B field
   LLRAUG    =     F  two centre corrections for induced B field



--------------------------------------------------------------------------------------------------------


 conjugate gradient relaxation of ions
 charge density and potential will be updated during run
 non-spin polarized calculation
 Variant of blocked Davidson
 Davidson routine will perform the subspace rotation
 perform sub-space diagonalisation
    after iterative eigenvector-optimisation
 Kerker-like  mixing scheme
 using additional bands           58
 real space projection scheme for non local part
 use partial core corrections
 calculate Harris-corrections to forces 
   (improved forces if not selfconsistent)
 use gradient corrections 
 use of overlap-Matrix (Vanderbilt PP)
 Gauss-broadening in eV      SIGMA  =   0.05


--------------------------------------------------------------------------------------------------------


  energy-cutoff  :      450.00
  volume of cell :     2241.29
      direct lattice vectors                 reciprocal lattice vectors
    13.086768000  0.000000000  0.000000000     0.076413061  0.000000000  0.000000000
     0.000000000 13.086768000  0.000000000     0.000000000  0.076413061  0.000000000
     0.000000000  0.000000000 13.086768000     0.000000000  0.000000000  0.076413061

  length of vectors
    13.086768000 13.086768000 13.086768000     0.076413061  0.076413061  0.076413061


 
 k-points in units of 2pi/SCALE and weight: Kpoints from DefectsWithTheBoys.vasp_gam
   0.00000000  0.00000000  0.00000000       1.000
 
 k-points in reciprocal lattice and weights: Kpoints from DefectsWithTheBoys.vasp_gam
   0.00000000  0.00000000  0.00000000       1.000
 
 position of ions in fractional coordinates (direct lattice) 
   0.00000000  0.00000000  0.50000000
   0.00000000  0.50000000  0.00000000
   0.00000000  0.50000000  0.50000000
   0.50000000  0.00000000  0.00000000
   0.50000000  0.00000000  0.50000000
   0.50000000  0.50000000  0.00000000
   0.50000000  0.50000000  0.50000000
   0.00000000  0.25000000  0.25000000
   0.00000000  0.25000000  0.75000000
   0.00000000  0.75000000  0.25000000
   0.00000000  0.75000000  0.75000000
   0.50000000  0.25000000  0.25000000
   0.50000000  0.25000000  0.75000000
   0.50000000  0.75000000  0.25000000
   0.50000000  0.75000000  0.75000000
   0.25000000  0.00000000  0.25000000
   0.25000000  0.00000000  0.75000000
   0.25000000  0.50000000  0.25000000
   0.25000000  0.50000000  0.75000000
   0.75000000  0.00000000  0.25000000
   0.75000000  0.00000000  0.75000000
   0.75000000  0.50000000  0.25000000
   0.75000000  0.50000000  0.75000000
   0.25000000  0.25000000  0.00000000
   0.25000000  0.25000000  0.50000000
   0.25000000  0.75000000  0.00000000
   0.25000000  0.75000000  0.50000000
   0.75000000  0.25000000  0.00000000
   0.75000000  0.25000000  0.50000000
   0.75000000  0.75000000  0.00000000
   0.75000000  0.75000000  0.50000000
   0.12500000  0.12500000  0.37500000
   0.12500000  0.12500000  0.87500000
   0.12500000  0.62500000  0.37500000
   0.12500000  0.62500000  0.87500000
   0.62500000  0.12500000  0.37500000
   0.62500000  0.12500000  0.87500000
   0.62500000  0.62500000  0.37500000
   0.62500000  0.62500000  0.87500000
   0.12500000  0.37500000  0.12500000
   0.12500000  0.37500000  0.62500000
   0.12500000  0.87500000  0.12500000
   0.12500000  0.87500000  0.62500000
   0.62500000  0.37500000  0.12500000
   0.62500000  0.37500000  0.62500000
   0.62500000  0.87500000  0.12500000
   0.62500000  0.87500000  0.62500000
   0.37500000  0.12500000  0.12500000
   0.37500000  0.12500000  0.62500000
   0.37500000  0.62500000  0.12500000
   0.37500000  0.62500000  0.62500000
   0.87500000  0.12500000  0.12500000
   0.87500000  0.12500000  0.62500000
   0.87500000  0.62500000  0.12500000
   0.87500000  0.62500000  0.62500000
   0.37500000  0.37500000  0.37500000
   0.37500000  0.37500000  0.87500000
   0.37500000  0.87500000  0.37500000
   0.37500000  0.87500000  0.87500000
   0.87500000  0.37500000  0.37500000
   0.87500000  0.37500000  0.87500000
   0.87500000  0.87500000  0.37500000
   0.87500000  0.87500000  0.87500000
 
 position of ions in cartesian coordinates  (Angst):
   0.00000000  0.00000000  6.54338400
   0.00000000  6.54338400  0.00000000
   0.00000000  6.54338400  6.54338400
   6.54338400  0.00000000  0.00000000
   6.54338400  0.00000000  6.54338400
   6.54338400  6.54338400  0.00000000
   6.54338400  6.54338400  6.54338400
   0.00000000  3.27169200  3.27169200
   0.00000000  3.27169200  9.81507600
   0.00000000  9.81507600  3.27169200
   0.00000000  9.81507600  9.81507600
   6.54338400  3.27169200  3.27169200
   6.54338400  3.27169200  9.81507600
   6.54338400  9.81507600  3.27169200
   6.54338400  9.81507600  9.81507600
   3.27169200  0.00000000  3.27169200
   3.27169200  0.00000000  9.81507600
   3.27169200  6.54338400  3.27169200
   3.27169200  6.54338400  9.81507600
   9.81507600  0.00000000  3.27169200
   9.81507600  0.00000000  9.81507600
   9.81507600  6.54338400  3.27169200
   9.81507600  6.54338400  9.81507600
   3.27169200  3.27169200  0.00000000
   3.27169200  3.27169200  6.54338400
   3.27169200  9.81507600  0.00000000
   3.27169200  9.81507600  6.54338400
   9.81507600  3.27169200  0.00000000
   9.81507600  3.27169200  6.54338400
   9.81507600  9.81507600  0.00000000
   9.81507600  9.81507600  6.54338400
   1.63584600  1.63584600  4.90753800
   1.63584600  1.63584600 11.45092200
   1.63584600  8.17923000  4.90753800
   1.63584600  8.17923000 11.45092200
   8.17923000  1.63584600  4.90753800
   8.17923000  1.63584600 11.45092200
   8.17923000  8.17923000  4.90753800
   8.17923000  8.17923000 11.45092200
   1.63584600  4.90753800  1.63584600
   1.63584600  4.90753800  8.17923000
   1.63584600 11.45092200  1.63584600
   1.63584600 11.45092200  8.17923000
   8.17923000  4.90753800  1.63584600
   8.17923000  4.90753800  8.17923000
   8.17923000 11.45092200  1.63584600
   8.17923000 11.45092200  8.17923000
   4.90753800  1.63584600  1.63584600
   4.90753800  1.63584600  8.17923000
   4.90753800  8.17923000  1.63584600
   4.90753800  8.17923000  8.17923000
  11.45092200  1.63584600  1.63584600
  11.45092200  1.63584600  8.17923000
  11.45092200  8.17923000  1.63584600
  11.45092200  8.17923000  8.17923000
   4.90753800  4.90753800  4.90753800
   4.90753800  4.90753800 11.45092200
   4.90753800 11.45092200  4.90753800
   4.90753800 11.45092200 11.45092200
  11.45092200  4.90753800  4.90753800
  11.45092200  4.90753800 11.45092200
  11.45092200 11.45092200  4.90753800
  11.45092200 11.45092200 11.45092200
 


--------------------------------------------------------------------------------------------------------


 use parallel FFT for orbitals z direction half grid
 k-point   1 :   0.0000 0.0000 0.0000  plane waves:   24251

 maximum and minimum number of plane-waves per node :      2027     2015

 maximum number of plane-waves:     24251
 maximum index in each direction: 
   IXMAX=   22   IYMAX=   22   IZMAX=   22
   IXMIN=  -22   IYMIN=  -22   IZMIN=    0


 real space projection operators:
  total allocation   :      27471.64 KBytes
  max/ min on nodes  :       2555.47       2086.55


 parallel 3D FFT for wavefunctions:
    minimum data exchange during FFTs selected (reduces bandwidth)
 parallel 3D FFT for charge:
    minimum data exchange during FFTs selected (reduces bandwidth)


 FFT grid for exact exchange (Hartree Fock) 
  NGX = 48; NGY = 48; NGZ = 48

 use parallel FFT for orbitals z direction half grid
 
 Radii for the augmentation spheres in the non-local exchange
 for species   1 augmentation radius   1.444 (default was   1.070)
       energy cutoff for augmentation   1800.0
 for species   2 augmentation radius   1.606 (default was   1.190)
       energy cutoff for augmentation   1800.0

 real space projection operators:
  total allocation   :       9041.60 KBytes
  max/ min on nodes  :        875.59        538.87

 Maximum index for augmentation-charges in exchange           89
  SETUP_FOCK is finished

 total amount of memory used by VASP MPI-rank0    54417. kBytes
=======================================================================

   base      :      30000. kBytes
   nonlr-proj:       3273. kBytes
   fftplans  :       6877. kBytes
   grid      :      11280. kBytes
   one-center:         46. kBytes
   HF        :        129. kBytes
   wavefun   :       2812. kBytes
 
     INWAV:  cpu time    0.0000: real time    0.0000
 initial charge density was supplied:
 charge density of overlapping atoms calculated
 number of electron     564.0000000 magnetization 
 keeping initial charge density in first step


--------------------------------------------------------------------------------------------------------


 Maximum index for non-local projection operator          293
 Maximum index for augmentation-charges          777 (set IRDMAX)


--------------------------------------------------------------------------------------------------------


 First call to EWALD:  gamma=   0.135
 Maximum number of real-space cells 3x 3x 3
 Maximum number of reciprocal cells 3x 3x 3

    FEWALD:  cpu time    0.0035: real time    0.0035


--------------------------------------- Iteration      1(   1)  ---------------------------------------


    POTLOK:  cpu time    0.1057: real time    0.1110
    SETDIJ:  cpu time    0.5777: real time    0.5778
     EDDAV:  cpu time    1.8621: real time    1.8647
       DOS:  cpu time    0.0057: real time    0.0057
    --------------------------------------------
      LOOP:  cpu time    2.5513: real time    2.5592

 eigenvalue-minimisations  :   704
 total energy-change (2. order) :-0.8805534E+05  (-0.2730609E+05)
 number of electron     564.0000000 magnetization 
 augmentation part      564.0000000 magnetization 

 Free energy of the ion-electron system (eV)
  ---------------------------------------------------
  alpha Z        PSCENC =      1482.04539224
  Ewald energy   TEWEN  =    -31769.32773388
  -Hartree energ DENC   =    -16454.02291316
  -exchange      EXHF   =         0.00000000
  -V(xc)+E(xc)   XCENC  =      -733.69077308
  PAW double counting   =     43745.08136476  -132352.96792733
  entropy T*S    EENTRO =        -0.00037543
  eigenvalues    EBANDS =       889.16087107
  atomic energy  EATOM  =     47138.37786884
  Solvation  Ediel_sol  =         0.00000000
  ---------------------------------------------------
  free energy    TOTEN  =    -88055.34422597 eV

  energy without entropy =   -88055.34385054  energy(sigma->0) =   -88055.34403825
  exchange ACFDT corr.  =         0.00000000  see jH, gK, PRB 81, 115126


--------------------------------------------------------------------------------------------------------




--------------------------------------- Iteration      1(   2)  ---------------------------------------


     EDDAV:  cpu time    2.2358: real time    2.2867
       DOS:  cpu time    0.0059: real time    0.0059
    --------------------------------------------
      LOOP:  cpu time    2.2416: real time    2.2926

 eigenvalue-minimisations  :   780
 total energy-change (2. order) :-0.4761923E+04  (-0.4622831E+04)
 number of electron     564.0000000 magnetization 
 augmentation part      564.0000000 magnetization 

 Free energy of the ion-electron system (eV)
  ---------------------------------------------------
  alpha Z        PSCENC =      1482.04539224
  Ewald energy   TEWEN  =    -31769.32773388
  -Hartree energ DENC   =    -16454.02291316
  -exchange      EXHF   =         0.00000000
  -V(xc)+E(xc)   XCENC  =      -733.69077308
  PAW double counting   =     43745.08136476  -132352.96792733
  entropy T*S    EENTRO =        -0.00023565
  eigenvalues    EBANDS =     -3872.76273528
  atomic energy  EATOM  =     47138.37786884
  Solvation  Ediel_sol  =         0.00000000
  ---------------------------------------------------
  free energy    TOTEN  =    -92817.26769254 eV

  energy without entropy =   -92817.26745689  energy(sigma->0) =   -92817.26757471
  exchange ACFDT corr.  =         0.00000000  see jH, gK, PRB 81, 115126


--------------------------------------------------------------------------------------------------------




--------------------------------------- Iteration      1(   3)  ---------------------------------------


     EDDAV:  cpu time    1.7457: real time    1.7590
       DOS:  cpu time    0.0011: real time    0.0011
    --------------------------------------------
      LOOP:  cpu time    1.7468: real time    1.7601

 eigenvalue-minimisations  :   764
 total energy-change (2. order) :-0.3934842E+03  (-0.3887729E+03)
 number of electron     564.0000000 magnetization 
 augmentation part      564.0000000 magnetization 

 Free energy of the ion-electron system (eV)
  ---------------------------------------------------
  alpha Z        PSCENC =      1482.04539224
  Ewald energy   TEWEN  =    -31769.32773388
  -Hartree energ DENC   =    -16454.02291316
  -exchange      EXHF   =         0.00000000
  -V(xc)+E(xc)   XCENC  =      -733.69077308
  PAW double counting   =     43745.08136476  -132352.96792733
  entropy T*S    EENTRO =        -0.07161839
  eigenvalues    EBANDS =     -4266.17557087
  atomic energy  EATOM  =     47138.37786884
  Solvation  Ediel_sol  =         0.00000000
  ---------------------------------------------------
  free energy    TOTEN  =    -93210.75191087 eV

  energy without entropy =   -93210.68029248  energy(sigma->0) =   -93210.71610167
  exchange ACFDT corr.  =         0.00000000  see jH, gK, PRB 81, 115126


--------------------------------------------------------------------------------------------------------




--------------------------------------- Iteration      1(   4)  ---------------------------------------


     EDDAV:  cpu time    2.1490: real time    2.1844
       DOS:  cpu time    0.0010: real time    0.0010
    --------------------------------------------
      LOOP:  cpu time    2.1500: real time    2.1854

 eigenvalue-minimisations  :   832
 total energy-change (2. order) :-0.1865347E+02  (-0.1859180E+02)
 number of electron     564.0000000 magnetization 
 augmentation part      564.0000000 magnetization 

 Free energy of the ion-electron system (eV)
  ---------------------------------------------------
  alpha Z        PSCENC =      1482.04539224
  Ewald energy   TEWEN  =    -31769.32773388
  -Hartree energ DENC   =    -16454.02291316
  -exchange      EXHF   =         0.00000000
  -V(xc)+E(xc)   XCENC  =      -733.69077308
  PAW double counting   =     43745.08136476  -132352.96792733
  entropy T*S    EENTRO =        -0.07712881
  eigenvalues    EBANDS =     -4284.82352889
  atomic energy  EATOM  =     47138.37786884
  Solvation  Ediel_sol  =         0.00000000
  ---------------------------------------------------
  free energy    TOTEN  =    -93229.40537931 eV

  energy without entropy =   -93229.32825050  energy(sigma->0) =   -93229.36681490
  exchange ACFDT corr.  =         0.00000000  see jH, gK, PRB 81, 115126


--------------------------------------------------------------------------------------------------------




--------------------------------------- Iteration      1(   5)  ---------------------------------------


    POTLOK:  cpu time    0.2460: real time    0.2468
    SETDIJ:  cpu time    0.9322: real time    0.9326
     EDDAV:  cpu time   18.8379: real time   19.3013
       DOS:  cpu time    0.0010: real time    0.0010
    CHARGE:  cpu time    0.0736: real time    0.0736
    MIXING:  cpu time    0.0012: real time    0.0012
    --------------------------------------------
      LOOP:  cpu time   20.0920: real time   20.5564

 eigenvalue-minimisations  :   680
 total energy-change (2. order) : 0.9302956E+05  (-0.7763245E+02)
 number of electron     563.9999917 magnetization 
 augmentation part      142.2524981 magnetization 

 Free energy of the ion-electron system (eV)
  ---------------------------------------------------
  alpha Z        PSCENC =      1482.04539224
  Ewald energy   TEWEN  =    -31769.32773388
  -Hartree energ DENC   =    -16454.02291316
  -exchange      EXHF   =      1582.75264277
  -V(xc)+E(xc)   XCENC  =      -599.17911910
  PAW double counting   =     43590.36926174   -41748.31759969
  entropy T*S    EENTRO =        -0.07712142
  eigenvalues    EBANDS =     -3422.46868425
  atomic energy  EATOM  =     47138.37786884
  Solvation  Ediel_sol  =         0.00000000
  ---------------------------------------------------
  free energy    TOTEN  =      -199.84800591 eV

  energy without entropy =     -199.77088448  energy(sigma->0) =     -199.80944520
  exchange ACFDT corr.  =         0.00000000  see jH, gK, PRB 81, 115126


--------------------------------------------------------------------------------------------------------




--------------------------------------- Iteration      1(   6)  ---------------------------------------


    POTLOK:  cpu time    0.2476: real time    0.2517
    SETDIJ:  cpu time    0.9262: real time    0.9284
     EDDAV:  cpu time   18.9227: real time   19.4077
       DOS:  cpu time    0.0010: real time    0.0009
    CHARGE:  cpu time    0.0722: real time    0.0722
    MIXING:  cpu time    0.0013: real time    0.0013
    --------------------------------------------
      LOOP:  cpu time   20.1710: real time   20.6623

 eigenvalue-minimisations  :   764
 total energy-change (2. order) :-0.5701859E+01  (-0.6060637E+01)
 number of electron     563.9999869 magnetization 
 augmentation part      142.3319768 magnetization 

 Free energy of the ion-electron system (eV)
  ---------------------------------------------------
  alpha Z        PSCENC =      1482.04539224
  Ewald energy   TEWEN  =    -31769.32773388
  -Hartree energ DENC   =    -16479.06524557
  -exchange      EXHF   =      1523.13370134
  -V(xc)+E(xc)   XCENC  =      -596.73207393
  PAW double counting   =     73896.13309237   -72031.22791950
  entropy T*S    EENTRO =        -0.07709776
  eigenvalues    EBANDS =     -3368.80984869
  atomic energy  EATOM  =     47138.37786884
  Solvation  Ediel_sol  =         0.00000000
  ---------------------------------------------------
  free energy    TOTEN  =      -205.54986454 eV

  energy without entropy =     -205.47276677  energy(sigma->0) =     -205.51131565
  exchange ACFDT corr.  =         0.00000000  see jH, gK, PRB 81, 115126


--------------------------------------------------------------------------------------------------------




--------------------------------------- Iteration      1(   7)  ---------------------------------------


    POTLOK:  cpu time    0.2443: real time    0.2470
    SETDIJ:  cpu time    0.9218: real time    0.9288
     EDDAV:  cpu time   18.1226: real time   18.3639
       DOS:  cpu time    0.0067: real time    0.0067
    CHARGE:  cpu time    0.0761: real time    0.0763
    MIXING:  cpu time    0.0018: real time    0.0018
    --------------------------------------------
      LOOP:  cpu time   19.3735: real time   19.6246

 eigenvalue-minimisations  :   772
 total energy-change (2. order) : 0.1650189E+00  (-0.9508214E+00)
 number of electron     563.9999839 magnetization 
 augmentation part      143.5228920 magnetization 

 Free energy of the ion-electron system (eV)
  ---------------------------------------------------
  alpha Z        PSCENC =      1482.04539224
  Ewald energy   TEWEN  =    -31769.32773388
  -Hartree energ DENC   =    -16398.85167899
  -exchange      EXHF   =      1504.52578185
  -V(xc)+E(xc)   XCENC  =      -596.65002969
  PAW double counting   =     99946.94044489   -98067.63930064
  entropy T*S    EENTRO =        -0.07702356
  eigenvalues    EBANDS =     -3444.72856670
  atomic energy  EATOM  =     47138.37786884
  Solvation  Ediel_sol  =         0.00000000
  ---------------------------------------------------
  free energy    TOTEN  =      -205.38484564 eV

  energy without entropy =     -205.30782208  energy(sigma->0) =     -205.34633386
  exchange ACFDT corr.  =         0.00000000  see jH, gK, PRB 81, 115126


--------------------------------------------------------------------------------------------------------




--------------------------------------- Iteration      1(   8)  ---------------------------------------


    POTLOK:  cpu time    0.2517: real time    0.2545
    SETDIJ:  cpu time    0.8886: real time    0.9225
     EDDAV:  cpu time   18.8809: real time   19.3754
       DOS:  cpu time    0.0009: real time    0.0009
    CHARGE:  cpu time    0.0721: real time    0.0722
    MIXING:  cpu time    0.0013: real time    0.0014
    --------------------------------------------
      LOOP:  cpu time   20.0957: real time   20.6270

 eigenvalue-minimisations  :   756
 total energy-change (2. order) :-0.1656790E+00  (-0.1552771E+00)
 number of electron     563.9999822 magnetization 
 augmentation part      144.0029678 magnetization 

 Free energy of the ion-electron system (eV)
  ---------------------------------------------------
  alpha Z        PSCENC =      1482.04539224
  Ewald energy   TEWEN  =    -31769.32773388
  -Hartree energ DENC   =    -16365.19820758
  -exchange      EXHF   =      1501.03977208
  -V(xc)+E(xc)   XCENC  =      -596.32749230
  PAW double counting   =    118282.23884454  -116398.15855118
  entropy T*S    EENTRO =        -0.07677128
  eigenvalues    EBANDS =     -3480.16364609
  atomic energy  EATOM  =     47138.37786884
  Solvation  Ediel_sol  =         0.00000000
  ---------------------------------------------------
  free energy    TOTEN  =      -205.55052460 eV

  energy without entropy =     -205.47375332  energy(sigma->0) =     -205.51213896
  exchange ACFDT corr.  =         0.00000000  see jH, gK, PRB 81, 115126


--------------------------------------------------------------------------------------------------------




--------------------------------------- Iteration      1(   9)  ---------------------------------------


    POTLOK:  cpu time    0.2454: real time    0.2477
    SETDIJ:  cpu time    0.9255: real time    0.9266
     EDDAV:  cpu time   18.8845: real time   19.1743
       DOS:  cpu time    0.0059: real time    0.0063
    CHARGE:  cpu time    0.0758: real time    0.0768
    MIXING:  cpu time    0.0014: real time    0.0014
    --------------------------------------------
      LOOP:  cpu time   20.1384: real time   20.4330

 eigenvalue-minimisations  :   724
 total energy-change (2. order) : 0.8840941E-01  (-0.9815269E-02)
 number of electron     563.9999811 magnetization 
 augmentation part      144.0546616 magnetization 

 Free energy of the ion-electron system (eV)
  ---------------------------------------------------
  alpha Z        PSCENC =      1482.04539224
  Ewald energy   TEWEN  =    -31769.32773388
  -Hartree energ DENC   =    -16358.31219996
  -exchange      EXHF   =      1500.74402847
  -V(xc)+E(xc)   XCENC  =      -595.88283491
  PAW double counting   =    130884.17824161  -128998.80873489
  entropy T*S    EENTRO =        -0.07607308
  eigenvalues    EBANDS =     -3488.40006963
  atomic energy  EATOM  =     47138.37786884
  Solvation  Ediel_sol  =         0.00000000
  ---------------------------------------------------
  free energy    TOTEN  =      -205.46211519 eV

  energy without entropy =     -205.38604211  energy(sigma->0) =     -205.42407865
  exchange ACFDT corr.  =         0.00000000  see jH, gK, PRB 81, 115126


--------------------------------------------------------------------------------------------------------




--------------------------------------- Iteration      1(  10)  ---------------------------------------


    POTLOK:  cpu time    0.2541: real time    0.2604
    SETDIJ:  cpu time    0.9052: real time    0.9216
     EDDAV:  cpu time   18.0555: real time   18.3154
       DOS:  cpu time    0.0056: real time    0.0056
    CHARGE:  cpu time    0.0738: real time    0.0739
    MIXING:  cpu time    0.0018: real time    0.0018
    --------------------------------------------
      LOOP:  cpu time   19.2960: real time   19.5786

 eigenvalue-minimisations  :   724
 total energy-change (2. order) : 0.4916645E-01  (-0.4985310E-02)
 number of electron     563.9999805 magnetization 
 augmentation part      143.9777947 magnetization 

 Free energy of the ion-electron system (eV)
  ---------------------------------------------------
  alpha Z        PSCENC =      1482.04539224
  Ewald energy   TEWEN  =    -31769.32773388
  -Hartree energ DENC   =    -16356.62248412
  -exchange      EXHF   =      1500.86104563
  -V(xc)+E(xc)   XCENC  =      -595.54245178
  PAW double counting   =    138830.04244495  -136944.13771391
  entropy T*S    EENTRO =        -0.07407944
  eigenvalues    EBANDS =     -3491.03523728
  atomic energy  EATOM  =     47138.37786884
  Solvation  Ediel_sol  =         0.00000000
  ---------------------------------------------------
  free energy    TOTEN  =      -205.41294874 eV

  energy without entropy =     -205.33886930  energy(sigma->0) =     -205.37590902
  exchange ACFDT corr.  =         0.00000000  see jH, gK, PRB 81, 115126


--------------------------------------------------------------------------------------------------------




--------------------------------------- Iteration      1(  11)  ---------------------------------------


    POTLOK:  cpu time    0.2477: real time    0.2510
    SETDIJ:  cpu time    0.9307: real time    0.9338
     EDDAV:  cpu time   19.0124: real time   19.5101
       DOS:  cpu time    0.0010: real time    0.0010
    CHARGE:  cpu time    0.0741: real time    0.0741
    MIXING:  cpu time    0.0012: real time    0.0012
    --------------------------------------------
      LOOP:  cpu time   20.2670: real time   20.7712

 eigenvalue-minimisations  :   732
 total energy-change (2. order) : 0.7132455E-02  (-0.2728116E-02)
 number of electron     563.9999801 magnetization 
 augmentation part      143.9095945 magnetization 

 Free energy of the ion-electron system (eV)
  ---------------------------------------------------
  alpha Z        PSCENC =      1482.04539224
  Ewald energy   TEWEN  =    -31769.32773388
  -Hartree energ DENC   =    -16355.23408937
  -exchange      EXHF   =      1501.05661766
  -V(xc)+E(xc)   XCENC  =      -595.32866517
  PAW double counting   =    143627.05485793  -141740.74594844
  entropy T*S    EENTRO =        -0.06748157
  eigenvalues    EBANDS =     -3493.23663453
  atomic energy  EATOM  =     47138.37786884
  Solvation  Ediel_sol  =         0.00000000
  ---------------------------------------------------
  free energy    TOTEN  =      -205.40581628 eV

  energy without entropy =     -205.33833471  energy(sigma->0) =     -205.37207550
  exchange ACFDT corr.  =         0.00000000  see jH, gK, PRB 81, 115126


--------------------------------------------------------------------------------------------------------




--------------------------------------- Iteration      1(  12)  ---------------------------------------


    POTLOK:  cpu time    0.2451: real time    0.2477
    SETDIJ:  cpu time    0.9173: real time    0.9181
     EDDAV:  cpu time   18.6623: real time   18.9904
       DOS:  cpu time    0.0011: real time    0.0011
    CHARGE:  cpu time    0.0736: real time    0.0736
    MIXING:  cpu time    0.0011: real time    0.0011
    --------------------------------------------
      LOOP:  cpu time   19.9005: real time   20.2320

 eigenvalue-minimisations  :   764
 total energy-change (2. order) :-0.5496181E-02  (-0.1045245E-02)
 number of electron     563.9999798 magnetization 
 augmentation part      143.8775345 magnetization 

 Free energy of the ion-electron system (eV)
  ---------------------------------------------------
  alpha Z        PSCENC =      1482.04539224
  Ewald energy   TEWEN  =    -31769.32773388
  -Hartree energ DENC   =    -16354.26251065
  -exchange      EXHF   =      1501.23372122
  -V(xc)+E(xc)   XCENC  =      -595.20061703
  PAW double counting   =    146501.14172879  -144614.53338729
  entropy T*S    EENTRO =        -0.04850367
  eigenvalues    EBANDS =     -3494.83727103
  atomic energy  EATOM  =     47138.37786884
  Solvation  Ediel_sol  =         0.00000000
  ---------------------------------------------------
  free energy    TOTEN  =      -205.41131246 eV

  energy without entropy =     -205.36280879  energy(sigma->0) =     -205.38706063
  exchange ACFDT corr.  =         0.00000000  see jH, gK, PRB 81, 115126


--------------------------------------------------------------------------------------------------------




--------------------------------------- Iteration      1(  13)  ---------------------------------------


    POTLOK:  cpu time    0.2465: real time    0.2474
    SETDIJ:  cpu time    0.9169: real time    0.9172
     EDDAV:  cpu time   18.0307: real time   18.2269
       DOS:  cpu time    0.0037: real time    0.0037
    CHARGE:  cpu time    0.0784: real time    0.0784
    MIXING:  cpu time    0.0018: real time    0.0018
    --------------------------------------------
      LOOP:  cpu time   19.2780: real time   19.4754

 eigenvalue-minimisations  :   732
 total energy-change (2. order) :-0.1443839E-01  (-0.8222887E-03)
 number of electron     563.9999797 magnetization 
 augmentation part      143.8640704 magnetization 

 Free energy of the ion-electron system (eV)
  ---------------------------------------------------
  alpha Z        PSCENC =      1482.04539224
  Ewald energy   TEWEN  =    -31769.32773388
  -Hartree energ DENC   =    -16353.88198444
  -exchange      EXHF   =      1501.36964033
  -V(xc)+E(xc)   XCENC  =      -595.12183482
  PAW double counting   =    148200.60026173  -146313.79355801
  entropy T*S    EENTRO =        -0.01969789
  eigenvalues    EBANDS =     -3495.67410496
  atomic energy  EATOM  =     47138.37786884
  Solvation  Ediel_sol  =         0.00000000
  ---------------------------------------------------
  free energy    TOTEN  =      -205.42575085 eV

  energy without entropy =     -205.40605297  energy(sigma->0) =     -205.41590191
  exchange ACFDT corr.  =         0.00000000  see jH, gK, PRB 81, 115126


--------------------------------------------------------------------------------------------------------




--------------------------------------- Iteration      1(  14)  ---------------------------------------


    POTLOK:  cpu time    0.2535: real time    0.2556
    SETDIJ:  cpu time    0.9223: real time    0.9226
     EDDAV:  cpu time   18.4766: real time   18.8081
       DOS:  cpu time    0.0009: real time    0.0009
    CHARGE:  cpu time    0.0732: real time    0.0733
    MIXING:  cpu time    0.0013: real time    0.0013
    --------------------------------------------
      LOOP:  cpu time   19.7278: real time   20.0618

 eigenvalue-minimisations  :   748
 total energy-change (2. order) :-0.4028688E-02  (-0.7807439E-03)
 number of electron     563.9999796 magnetization 
 augmentation part      143.8582006 magnetization 

 Free energy of the ion-electron system (eV)
  ---------------------------------------------------
  alpha Z        PSCENC =      1482.04539224
  Ewald energy   TEWEN  =    -31769.32773388
  -Hartree energ DENC   =    -16353.92548343
  -exchange      EXHF   =      1501.46954325
  -V(xc)+E(xc)   XCENC  =      -595.07202135
  PAW double counting   =    149179.58388958  -147292.65865400
  entropy T*S    EENTRO =        -0.00644253
  eigenvalues    EBANDS =     -3495.91613827
  atomic energy  EATOM  =     47138.37786884
  Solvation  Ediel_sol  =         0.00000000
  ---------------------------------------------------
  free energy    TOTEN  =      -205.42977954 eV

  energy without entropy =     -205.42333701  energy(sigma->0) =     -205.42655828
  exchange ACFDT corr.  =         0.00000000  see jH, gK, PRB 81, 115126


--------------------------------------------------------------------------------------------------------




--------------------------------------- Iteration      1(  15)  ---------------------------------------


    POTLOK:  cpu time    0.2475: real time    0.2501
    SETDIJ:  cpu time    0.9244: real time    0.9256
     EDDAV:  cpu time   18.1904: real time   18.5134
       DOS:  cpu time    0.0119: real time    0.0135
    CHARGE:  cpu time    0.0814: real time    0.0819
    MIXING:  cpu time    0.0025: real time    0.0038
    --------------------------------------------
      LOOP:  cpu time   19.4580: real time   19.7883

 eigenvalue-minimisations  :   716
 total energy-change (2. order) : 0.1938920E-02  (-0.1090317E-02)
 number of electron     563.9999796 magnetization 
 augmentation part      143.8526377 magnetization 

 Free energy of the ion-electron system (eV)
  ---------------------------------------------------
  alpha Z        PSCENC =      1482.04539224
  Ewald energy   TEWEN  =    -31769.32773388
  -Hartree energ DENC   =    -16354.13244092
  -exchange      EXHF   =      1501.50270325
  -V(xc)+E(xc)   XCENC  =      -595.04051809
  PAW double counting   =    149748.83583602  -147861.84176870
  entropy T*S    EENTRO =        -0.00501872
  eigenvalues    EBANDS =     -3495.84216065
  atomic energy  EATOM  =     47138.37786884
  Solvation  Ediel_sol  =         0.00000000
  ---------------------------------------------------
  free energy    TOTEN  =      -205.42784062 eV

  energy without entropy =     -205.42282190  energy(sigma->0) =     -205.42533126
  exchange ACFDT corr.  =         0.00000000  see jH, gK, PRB 81, 115126


--------------------------------------------------------------------------------------------------------




--------------------------------------- Iteration      1(  16)  ---------------------------------------


    POTLOK:  cpu time    0.2599: real time    0.2683
    SETDIJ:  cpu time    0.9261: real time    0.9323
     EDDAV:  cpu time   18.4857: real time   18.8986
       DOS:  cpu time    0.0080: real time    0.0080
    CHARGE:  cpu time    0.0748: real time    0.0749
    MIXING:  cpu time    0.0015: real time    0.0015
    --------------------------------------------
      LOOP:  cpu time   19.7561: real time   20.1836

 eigenvalue-minimisations  :   740
 total energy-change (2. order) :-0.9705213E-04  (-0.1147830E-02)
 number of electron     563.9999795 magnetization 
 augmentation part      143.8506194 magnetization 

 Free energy of the ion-electron system (eV)
  ---------------------------------------------------
  alpha Z        PSCENC =      1482.04539224
  Ewald energy   TEWEN  =    -31769.32773388
  -Hartree energ DENC   =    -16354.30479259
  -exchange      EXHF   =      1501.49952112
  -V(xc)+E(xc)   XCENC  =      -595.02206581
  PAW double counting   =    150089.88981228  -148202.85408294
  entropy T*S    EENTRO =        -0.00560638
  eigenvalues    EBANDS =     -3495.72625055
  atomic energy  EATOM  =     47138.37786884
  Solvation  Ediel_sol  =         0.00000000
  ---------------------------------------------------
  free energy    TOTEN  =      -205.42793767 eV

  energy without entropy =     -205.42233129  energy(sigma->0) =     -205.42513448
  exchange ACFDT corr.  =         0.00000000  see jH, gK, PRB 81, 115126


--------------------------------------------------------------------------------------------------------




--------------------------------------- Iteration      1(  17)  ---------------------------------------


    POTLOK:  cpu time    0.2543: real time    0.2566
    SETDIJ:  cpu time    0.9213: real time    0.9216
     EDDAV:  cpu time   18.5794: real time   18.8577
       DOS:  cpu time    0.0038: real time    0.0038
    CHARGE:  cpu time    0.0738: real time    0.0739
    MIXING:  cpu time    0.0012: real time    0.0012
    --------------------------------------------
      LOOP:  cpu time   19.8338: real time   20.1148

 eigenvalue-minimisations  :   724
 total energy-change (2. order) : 0.1874598E-02  (-0.6435122E-03)
 number of electron     563.9999795 magnetization 
 augmentation part      143.8492324 magnetization 

 Free energy of the ion-electron system (eV)
  ---------------------------------------------------
  alpha Z        PSCENC =      1482.04539224
  Ewald energy   TEWEN  =    -31769.32773388
  -Hartree energ DENC   =    -16354.39721177
  -exchange      EXHF   =      1501.49186664
  -V(xc)+E(xc)   XCENC  =      -595.01101024
  PAW double counting   =    150295.53964366  -148408.48103872
  entropy T*S    EENTRO =        -0.00644342
  eigenvalues    EBANDS =     -3495.65739642
  atomic energy  EATOM  =     47138.37786884
  Solvation  Ediel_sol  =         0.00000000
  ---------------------------------------------------
  free energy    TOTEN  =      -205.42606308 eV

  energy without entropy =     -205.41961965  energy(sigma->0) =     -205.42284136
  exchange ACFDT corr.  =         0.00000000  see jH, gK, PRB 81, 115126


--------------------------------------------------------------------------------------------------------




--------------------------------------- Iteration      1(  18)  ---------------------------------------


    POTLOK:  cpu time    0.2536: real time    0.2558
    SETDIJ:  cpu time    0.9226: real time    0.9270
     EDDAV:  cpu time   18.2609: real time   18.7494
       DOS:  cpu time    0.0084: real time    0.0084
    CHARGE:  cpu time    0.0758: real time    0.0759
    MIXING:  cpu time    0.0030: real time    0.0030
    --------------------------------------------
      LOOP:  cpu time   19.5242: real time   20.0194

 eigenvalue-minimisations  :   708
 total energy-change (2. order) : 0.8670960E-03  (-0.5937764E-03)
 number of electron     563.9999795 magnetization 
 augmentation part      143.8483447 magnetization 

 Free energy of the ion-electron system (eV)
  ---------------------------------------------------
  alpha Z        PSCENC =      1482.04539224
  Ewald energy   TEWEN  =    -31769.32773388
  -Hartree energ DENC   =    -16354.43128879
  -exchange      EXHF   =      1501.48553673
  -V(xc)+E(xc)   XCENC  =      -595.00434707
  PAW double counting   =    150417.19417470  -148530.12371388
  entropy T*S    EENTRO =        -0.00741125
  eigenvalues    EBANDS =     -3495.63367361
  atomic energy  EATOM  =     47138.37786884
  Solvation  Ediel_sol  =         0.00000000
  ---------------------------------------------------
  free energy    TOTEN  =      -205.42519598 eV

  energy without entropy =     -205.41778473  energy(sigma->0) =     -205.42149035
  exchange ACFDT corr.  =         0.00000000  see jH, gK, PRB 81, 115126


--------------------------------------------------------------------------------------------------------




--------------------------------------- Iteration      1(  19)  ---------------------------------------


    POTLOK:  cpu time    0.2531: real time    0.2558
    SETDIJ:  cpu time    0.9161: real time    0.9233
     EDDAV:  cpu time   17.8027: real time   18.1949
       DOS:  cpu time    0.0009: real time    0.0009
    CHARGE:  cpu time    0.0735: real time    0.0736
    MIXING:  cpu time    0.0012: real time    0.0012
    --------------------------------------------
      LOOP:  cpu time   19.0476: real time   19.4498

 eigenvalue-minimisations  :   732
 total energy-change (2. order) :-0.2506151E-02  (-0.1245720E-02)
 number of electron     563.9999795 magnetization 
 augmentation part      143.8475628 magnetization 

 Free energy of the ion-electron system (eV)
  ---------------------------------------------------
  alpha Z        PSCENC =      1482.04539224
  Ewald energy   TEWEN  =    -31769.32773388
  -Hartree energ DENC   =    -16354.43164861
  -exchange      EXHF   =      1501.47674469
  -V(xc)+E(xc)   XCENC  =      -595.00057630
  PAW double counting   =    150489.38971025  -148602.31399957
  entropy T*S    EENTRO =        -0.00778350
  eigenvalues    EBANDS =     -3495.63567629
  atomic energy  EATOM  =     47138.37786884
  Solvation  Ediel_sol  =         0.00000000
  ---------------------------------------------------
  free energy    TOTEN  =      -205.42770213 eV

  energy without entropy =     -205.41991863  energy(sigma->0) =     -205.42381038
  exchange ACFDT corr.  =         0.00000000  see jH, gK, PRB 81, 115126


--------------------------------------------------------------------------------------------------------




--------------------------------------- Iteration      1(  20)  ---------------------------------------


    POTLOK:  cpu time    0.2444: real time    0.2462
    SETDIJ:  cpu time    0.9155: real time    0.9209
     EDDAV:  cpu time   17.5328: real time   17.7842
       DOS:  cpu time    0.0057: real time    0.0057
    CHARGE:  cpu time    0.0738: real time    0.0738
    MIXING:  cpu time    0.0011: real time    0.0011
    --------------------------------------------
      LOOP:  cpu time   18.7733: real time   19.0319

 eigenvalue-minimisations  :   716
 total energy-change (2. order) :-0.3444361E-03  (-0.1377391E-02)
 number of electron     563.9999795 magnetization 
 augmentation part      143.8474946 magnetization 

 Free energy of the ion-electron system (eV)
  ---------------------------------------------------
  alpha Z        PSCENC =      1482.04539224
  Ewald energy   TEWEN  =    -31769.32773388
  -Hartree energ DENC   =    -16354.45433785
  -exchange      EXHF   =      1501.47710533
  -V(xc)+E(xc)   XCENC  =      -594.99831125
  PAW double counting   =    150535.99362968  -148648.91576824
  entropy T*S    EENTRO =        -0.00746729
  eigenvalues    EBANDS =     -3495.61842415
  atomic energy  EATOM  =     47138.37786884
  Solvation  Ediel_sol  =         0.00000000
  ---------------------------------------------------
  free energy    TOTEN  =      -205.42804657 eV

  energy without entropy =     -205.42057928  energy(sigma->0) =     -205.42431292
  exchange ACFDT corr.  =         0.00000000  see jH, gK, PRB 81, 115126


--------------------------------------------------------------------------------------------------------




--------------------------------------- Iteration      1(  21)  ---------------------------------------


    POTLOK:  cpu time    0.2493: real time    0.2516
    SETDIJ:  cpu time    0.9156: real time    0.9160
     EDDAV:  cpu time   18.4779: real time   18.6406
       DOS:  cpu time    0.0010: real time    0.0010
    CHARGE:  cpu time    0.0736: real time    0.0737
    MIXING:  cpu time    0.0012: real time    0.0012
    --------------------------------------------
      LOOP:  cpu time   19.7186: real time   19.8840

 eigenvalue-minimisations  :   740
 total energy-change (2. order) : 0.3594064E-02  (-0.7705408E-03)
 number of electron     563.9999795 magnetization 
 augmentation part      143.8472501 magnetization 

 Free energy of the ion-electron system (eV)
  ---------------------------------------------------
  alpha Z        PSCENC =      1482.04539224
  Ewald energy   TEWEN  =    -31769.32773388
  -Hartree energ DENC   =    -16354.51019910
  -exchange      EXHF   =      1501.48275446
  -V(xc)+E(xc)   XCENC  =      -594.99653502
  PAW double counting   =    150562.97153844  -148675.89302059
  entropy T*S    EENTRO =        -0.00766009
  eigenvalues    EBANDS =     -3495.56685780
  atomic energy  EATOM  =     47138.37786884
  Solvation  Ediel_sol  =         0.00000000
  ---------------------------------------------------
  free energy    TOTEN  =      -205.42445250 eV

  energy without entropy =     -205.41679241  energy(sigma->0) =     -205.42062246
  exchange ACFDT corr.  =         0.00000000  see jH, gK, PRB 81, 115126


--------------------------------------------------------------------------------------------------------




--------------------------------------- Iteration      1(  22)  ---------------------------------------


    POTLOK:  cpu time    0.2448: real time    0.2476
    SETDIJ:  cpu time    0.9203: real time    0.9207
     EDDAV:  cpu time   18.3929: real time   18.6917
       DOS:  cpu time    0.0061: real time    0.0061
    CHARGE:  cpu time    0.0729: real time    0.0736
    MIXING:  cpu time    0.0012: real time    0.0012
    --------------------------------------------
      LOOP:  cpu time   19.6381: real time   19.9409

 eigenvalue-minimisations  :   716
 total energy-change (2. order) :-0.8536877E-03  (-0.1336431E-02)
 number of electron     563.9999795 magnetization 
 augmentation part      143.8471933 magnetization 

 Free energy of the ion-electron system (eV)
  ---------------------------------------------------
  alpha Z        PSCENC =      1482.04539224
  Ewald energy   TEWEN  =    -31769.32773388
  -Hartree energ DENC   =    -16354.53279507
  -exchange      EXHF   =      1501.48009199
  -V(xc)+E(xc)   XCENC  =      -594.99549989
  PAW double counting   =    150578.66757385  -148691.58804754
  entropy T*S    EENTRO =        -0.00827113
  eigenvalues    EBANDS =     -3495.54388561
  atomic energy  EATOM  =     47138.37786884
  Solvation  Ediel_sol  =         0.00000000
  ---------------------------------------------------
  free energy    TOTEN  =      -205.42530619 eV

  energy without entropy =     -205.41703507  energy(sigma->0) =     -205.42117063
  exchange ACFDT corr.  =         0.00000000  see jH, gK, PRB 81, 115126


--------------------------------------------------------------------------------------------------------




--------------------------------------- Iteration      1(  23)  ---------------------------------------


    POTLOK:  cpu time    0.2484: real time    0.2517
    SETDIJ:  cpu time    0.9163: real time    0.9204
     EDDAV:  cpu time   18.4137: real time   18.8781
       DOS:  cpu time    0.0009: real time    0.0009
    CHARGE:  cpu time    0.0736: real time    0.0737
    MIXING:  cpu time    0.0014: real time    0.0014
    --------------------------------------------
      LOOP:  cpu time   19.6545: real time   20.1263

 eigenvalue-minimisations  :   716
 total energy-change (2. order) :-0.4434849E-02  (-0.2519164E-02)
 number of electron     563.9999795 magnetization 
 augmentation part      143.8471293 magnetization 

 Free energy of the ion-electron system (eV)
  ---------------------------------------------------
  alpha Z        PSCENC =      1482.04539224
  Ewald energy   TEWEN  =    -31769.32773388
  -Hartree energ DENC   =    -16354.51851190
  -exchange      EXHF   =      1501.47436299
  -V(xc)+E(xc)   XCENC  =      -594.99505450
  PAW double counting   =    150586.70699020  -148699.62663049
  entropy T*S    EENTRO =        -0.00786244
  eigenvalues    EBANDS =     -3495.55856212
  atomic energy  EATOM  =     47138.37786884
  Solvation  Ediel_sol  =         0.00000000
  ---------------------------------------------------
  free energy    TOTEN  =      -205.42974104 eV

  energy without entropy =     -205.42187860  energy(sigma->0) =     -205.42580982
  exchange ACFDT corr.  =         0.00000000  see jH, gK, PRB 81, 115126


--------------------------------------------------------------------------------------------------------




--------------------------------------- Iteration      1(  24)  ---------------------------------------


    POTLOK:  cpu time    0.2537: real time    0.2540
    SETDIJ:  cpu time    0.9319: real time    0.9322
     EDDAV:  cpu time   18.2651: real time   18.4562
       DOS:  cpu time    0.0012: real time    0.0012
    CHARGE:  cpu time    0.0744: real time    0.0744
    MIXING:  cpu time    0.0026: real time    0.0026
    --------------------------------------------
[...]
     0.000000000  0.000000000 13.086768000     0.000000000  0.000000000  0.076413061

  length of vectors
    13.086768000 13.086768000 13.086768000     0.076413061  0.076413061  0.076413061


 FORCES acting on ions
    electron-ion (+dipol)            ewald-force                    non-local-force                 convergence-correction
 -----------------------------------------------------------------------------------------------
   0.841E-01 0.535E-01 -.157E+00   -.748E-01 -.473E-01 0.159E+00   0.213E-01 -.625E-02 -.417E-02   0.584E-03 -.224E-02 0.139E-02
   -.179E-01 0.169E+00 0.448E+00   0.141E-01 -.166E+00 -.447E+00   0.310E-01 -.620E-02 0.116E-01   -.180E-02 -.716E-03 -.808E-03
   -.173E+01 0.542E+00 -.498E+00   0.163E+01 -.544E+00 0.497E+00   0.766E-01 0.162E-01 -.201E-01   -.101E-03 -.412E-03 0.228E-02
   0.111E+01 -.476E-01 0.578E+00   -.110E+01 0.401E-01 -.576E+00   -.151E-01 0.161E-01 0.184E-01   0.916E-03 0.178E-02 0.733E-03
   0.198E+00 -.541E-01 -.567E+00   -.196E+00 0.603E-01 0.571E+00   0.102E-01 -.189E-01 -.286E-01   -.579E-04 0.560E-03 0.384E-03
   -.489E+00 0.108E+00 0.612E-01   0.481E+00 -.115E+00 -.972E-01   -.423E-02 0.188E-01 0.423E-01   0.728E-03 0.272E-02 0.120E-02
   0.403E+00 0.150E+00 -.248E+00   -.447E+00 -.147E+00 0.235E+00   0.737E-01 -.764E-02 0.884E-02   -.622E-03 0.276E-02 -.189E-02
   -.862E+01 0.273E+02 0.315E+02   0.791E+01 -.283E+02 -.324E+02   0.664E+00 0.884E+00 0.844E+00   0.195E-02 -.114E-02 0.105E-02
   0.565E+01 0.287E+02 -.327E+02   -.518E+01 -.295E+02 0.334E+02   -.449E+00 0.773E+00 -.743E+00   0.132E-02 -.593E-03 -.429E-03
   0.559E+01 -.290E+02 0.326E+02   -.515E+01 0.298E+02 -.334E+02   -.400E+00 -.776E+00 0.710E+00   -.274E-02 -.673E-03 -.113E-03
   -.869E+01 -.272E+02 -.314E+02   0.798E+01 0.282E+02 0.323E+02   0.665E+00 -.905E+00 -.853E+00   -.105E-02 0.114E-02 0.405E-02
   0.540E+01 0.513E+01 0.544E+01   -.545E+01 -.533E+01 -.553E+01   0.238E-01 0.189E+00 0.689E-01   0.126E-02 0.297E-02 -.439E-02
   -.497E+01 0.549E+01 -.566E+01   0.500E+01 -.569E+01 0.574E+01   -.602E-02 0.190E+00 -.300E-01   -.111E-02 0.116E-02 -.167E-02
   -.542E+01 -.512E+01 0.546E+01   0.544E+01 0.534E+01 -.555E+01   -.220E-01 -.206E+00 0.344E-01   -.286E-02 -.257E-02 -.380E-02
   0.576E+01 -.540E+01 -.562E+01   -.581E+01 0.559E+01 0.570E+01   0.232E-01 -.184E+00 -.456E-01   0.211E-02 -.323E-03 -.106E-02
   0.292E+02 -.104E+02 0.293E+02   -.302E+02 0.950E+01 -.302E+02   0.887E+00 0.828E+00 0.840E+00   -.117E-02 -.247E-02 -.880E-03
   0.289E+02 0.102E+02 -.287E+02   -.298E+02 -.926E+01 0.296E+02   0.863E+00 -.884E+00 -.859E+00   0.138E-02 0.878E-03 0.802E-03
   0.652E+01 0.370E+01 0.635E+01   -.672E+01 -.380E+01 -.651E+01   0.157E+00 0.807E-01 0.121E+00   0.157E-02 -.397E-03 -.177E-02
   0.700E+01 -.345E+01 -.668E+01   -.718E+01 0.353E+01 0.682E+01   0.142E+00 -.623E-01 -.114E+00   0.148E-02 -.205E-02 0.215E-02
   -.281E+02 0.118E+02 0.281E+02   0.291E+02 -.108E+02 -.291E+02   -.893E+00 -.938E+00 0.931E+00   0.124E-02 0.263E-03 -.145E-02
   -.278E+02 -.122E+02 -.276E+02   0.288E+02 0.112E+02 0.286E+02   -.917E+00 0.949E+00 -.923E+00   0.967E-03 -.104E-02 0.206E-02
   -.729E+01 -.436E+01 0.754E+01   0.738E+01 0.440E+01 -.768E+01   -.503E-01 -.289E-01 0.875E-01   -.467E-03 0.595E-03 0.329E-03
   -.769E+01 0.470E+01 -.789E+01   0.778E+01 -.475E+01 0.801E+01   -.473E-01 0.247E-01 -.807E-01   0.833E-03 0.364E-02 -.628E-03
   0.323E+02 0.286E+02 -.621E+01   -.332E+02 -.295E+02 0.563E+01   0.792E+00 0.822E+00 0.547E+00   0.776E-03 0.117E-02 -.511E-03
   0.550E+01 0.492E+01 0.481E+01   -.563E+01 -.513E+01 -.486E+01   0.765E-01 0.194E+00 0.558E-01   0.183E-02 -.370E-03 -.169E-02
   0.326E+02 -.293E+02 0.672E+01   -.335E+02 0.302E+02 -.620E+01   0.778E+00 -.801E+00 -.473E+00   -.107E-02 -.545E-03 -.120E-02
   0.513E+01 -.485E+01 -.506E+01   -.526E+01 0.507E+01 0.513E+01   0.788E-01 -.222E+00 -.476E-01   -.164E-02 -.239E-03 0.121E-02
   -.320E+02 0.272E+02 0.769E+01   0.328E+02 -.281E+02 -.710E+01   -.779E+00 0.852E+00 -.555E+00   -.195E-02 0.953E-03 -.465E-03
   -.588E+01 0.573E+01 -.616E+01   0.593E+01 -.591E+01 0.618E+01   -.129E-01 0.154E+00 -.121E-01   0.487E-03 0.453E-03 0.628E-03
   -.316E+02 -.271E+02 -.790E+01   0.325E+02 0.280E+02 0.725E+01   -.789E+00 -.861E+00 0.605E+00   0.201E-03 -.259E-03 0.298E-03
   -.578E+01 -.568E+01 0.566E+01   0.582E+01 0.587E+01 -.568E+01   -.127E-01 -.198E+00 -.344E-02   -.121E-02 -.269E-02 -.118E-02
   -.704E+00 0.165E+01 0.142E+02   0.794E+00 -.170E+01 -.146E+02   -.906E-01 0.438E-01 0.441E+00   -.194E-03 -.167E-03 0.112E-04
   0.662E+02 0.643E+02 -.659E+02   -.699E+02 -.671E+02 0.696E+02   0.343E+01 0.266E+01 -.334E+01   0.898E-03 0.931E-03 0.256E-03
   0.540E+01 -.283E+01 0.425E+01   -.564E+01 0.299E+01 -.455E+01   0.220E+00 -.141E+00 0.285E+00   -.294E-03 -.410E-03 0.363E-03
   0.332E+01 -.146E+02 -.217E+01   -.350E+01 0.151E+02 0.224E+01   0.162E+00 -.463E+00 -.654E-01   -.538E-03 0.110E-02 0.167E-02
   -.112E+01 0.560E+01 0.134E+01   0.123E+01 -.564E+01 -.149E+01   -.937E-01 0.379E-01 0.136E+00   -.121E-03 -.276E-03 -.137E-03
   -.138E+02 0.218E+01 0.149E+01   0.142E+02 -.229E+01 -.161E+01   -.438E+00 0.994E-01 0.106E+00   -.116E-03 -.503E-03 0.255E-03
   -.196E+01 -.236E+01 0.318E+01   0.205E+01 0.236E+01 -.330E+01   -.827E-01 0.624E-03 0.107E+00   0.635E-03 0.484E-03 -.112E-02
   -.380E+01 -.220E+01 -.593E+01   0.408E+01 0.236E+01 0.619E+01   -.259E+00 -.153E+00 -.239E+00   0.278E-03 0.361E-03 -.165E-03
   0.325E+01 0.152E+02 0.239E+01   -.342E+01 -.157E+02 -.246E+01   0.157E+00 0.485E+00 0.595E-01   0.497E-03 0.936E-04 -.614E-03
   0.613E+01 0.260E+01 -.413E+01   -.640E+01 -.274E+01 0.441E+01   0.264E+00 0.131E+00 -.260E+00   -.908E-03 -.350E-03 -.120E-03
   0.659E+02 -.643E+02 0.661E+02   -.696E+02 0.670E+02 -.697E+02   0.340E+01 -.259E+01 0.329E+01   0.966E-04 -.388E-03 -.450E-03
   -.608E+00 -.206E+01 -.146E+02   0.686E+00 0.212E+01 0.151E+02   -.728E-01 -.547E-01 -.461E+00   -.121E-02 0.303E-03 -.120E-02
   -.373E+01 0.273E+01 0.652E+01   0.400E+01 -.293E+01 -.680E+01   -.248E+00 0.176E+00 0.262E+00   -.712E-03 0.174E-03 0.776E-03
   -.215E+01 0.252E+01 -.252E+01   0.225E+01 -.253E+01 0.260E+01   -.943E-01 0.168E-01 -.757E-01   0.432E-03 -.726E-03 0.129E-02
   -.142E+02 -.172E+01 -.113E+01   0.147E+02 0.181E+01 0.124E+01   -.465E+00 -.809E-01 -.110E+00   -.471E-03 -.137E-03 -.507E-04
   -.119E+01 -.632E+01 -.147E+01   0.132E+01 0.638E+01 0.160E+01   -.118E+00 -.645E-01 -.115E+00   0.118E-03 -.142E-02 0.674E-03
   0.141E+02 0.268E+01 -.335E+00   -.146E+02 -.279E+01 0.449E+00   0.387E+00 0.870E-01 -.108E+00   0.931E-03 0.110E-02 -.120E-02
   0.105E+01 0.545E+01 -.142E+01   -.111E+01 -.549E+01 0.149E+01   0.548E-01 0.402E-01 -.696E-01   0.735E-03 0.120E-02 0.226E-03
   0.477E+01 -.275E+01 0.538E+01   -.510E+01 0.289E+01 -.560E+01   0.296E+00 -.121E+00 0.206E+00   0.117E-02 -.608E-03 0.903E-03
   0.284E+01 -.163E+01 -.226E+01   -.291E+01 0.160E+01 0.235E+01   0.701E-01 0.266E-01 -.872E-01   0.742E-03 0.102E-02 0.139E-03
   -.673E+02 0.654E+02 0.676E+02   0.712E+02 -.685E+02 -.716E+02   -.363E+01 0.294E+01 0.372E+01   0.888E-03 -.104E-02 0.651E-04
   0.885E+00 0.272E+01 -.138E+02   -.101E+01 -.286E+01 0.143E+02   0.120E+00 0.133E+00 -.400E+00   0.170E-03 0.171E-03 -.479E-03
   -.209E+01 -.140E+02 0.367E+01   0.215E+01 0.145E+02 -.386E+01   -.639E-01 -.416E+00 0.171E+00   0.271E-03 -.286E-03 -.348E-03
   -.582E+01 -.216E+01 -.439E+01   0.606E+01 0.230E+01 0.469E+01   -.220E+00 -.129E+00 -.270E+00   -.881E-03 0.193E-03 0.150E-02
   0.319E+01 0.157E+01 0.190E+01   -.329E+01 -.156E+01 -.195E+01   0.924E-01 -.728E-02 0.364E-01   -.207E-03 0.117E-02 -.179E-02
   0.435E+01 0.267E+01 -.514E+01   -.463E+01 -.277E+01 0.537E+01   0.263E+00 0.103E+00 -.208E+00   -.446E-03 -.907E-03 0.115E-02
   0.186E+01 -.519E+01 0.102E+01   -.199E+01 0.520E+01 -.109E+01   0.111E+00 -.942E-02 0.608E-01   0.122E-03 0.120E-03 -.119E-02
   0.137E+02 -.271E+01 0.494E+00   -.141E+02 0.283E+01 -.612E+00   0.358E+00 -.117E+00 0.109E+00   -.863E-03 0.254E-03 -.511E-03
   -.557E+01 0.230E+01 0.388E+01   0.580E+01 -.243E+01 -.416E+01   -.220E+00 0.123E+00 0.256E+00   -.245E-03 -.452E-03 -.455E-03
   -.256E+01 0.139E+02 -.326E+01   0.265E+01 -.144E+02 0.343E+01   -.810E-01 0.399E+00 -.159E+00   0.406E-03 0.953E-03 0.923E-03
   0.958E+00 -.312E+01 0.131E+02   -.111E+01 0.327E+01 -.135E+02   0.147E+00 -.141E+00 0.362E+00   -.365E-03 -.140E-03 0.353E-03
   -.674E+02 -.658E+02 -.674E+02   0.714E+02 0.690E+02 0.715E+02   -.368E+01 -.299E+01 -.374E+01   0.200E-04 -.592E-03 -.168E-03
 -----------------------------------------------------------------------------------------------
   -.548E+00 0.141E-01 -.288E-01   0.298E-12 0.568E-13 0.426E-13   0.640E+00 -.934E-01 0.224E-01   0.263E-02 0.353E-02 -.483E-02
 
 
 POSITION                                       TOTAL-FORCE (eV/Angst)
 -----------------------------------------------------------------------------------
      0.00766     -0.00048      6.54391         0.000639     -0.001959     -0.000606
      0.00799      6.54296      0.00373         0.002319     -0.000677      0.001086
     -0.00440      6.54664      6.53963         0.000165      0.000026     -0.000841
      6.54356      0.00132      0.00275         0.000800      0.000243      0.000711
      6.54627     -0.00298      6.53767         0.000621     -0.000041      0.000424
      6.53866      6.54870      0.00357         0.001798     -0.001578     -0.002003
      6.55112      6.54337      6.54359         0.000593     -0.002139     -0.001379
     -0.06972      3.18094      3.21859         0.001653     -0.000189      0.001804
      0.04941      3.18539      9.87333         0.000187      0.000558     -0.003132
      0.03890      9.90027      3.21787         0.000040      0.000733      0.001642
     -0.07106      9.90504      9.86972         0.000285     -0.002628     -0.001049
      6.53156      3.27504      3.26060         0.001426     -0.000608      0.000820
      6.55104      3.27230      9.83547         0.000596     -0.000012     -0.000998
      6.54518      9.81874      3.25019         0.001945     -0.001311     -0.001654
      6.53611      9.81437      9.82635         0.000513     -0.000487      0.001163
      3.21407     -0.09051      3.21794         0.000102      0.000514     -0.000832
      3.21905      0.09185      9.86592        -0.002051     -0.002333      0.004069
      3.24065      6.52875      3.24465         0.002575     -0.001262      0.000655
      3.23926      6.55946      9.84261         0.001555     -0.001490     -0.002260
      9.87330      0.09850      3.21086         0.001538     -0.000732     -0.001421
      9.87408     -0.09946      9.87603         0.000350     -0.000003      0.000940
      9.83914      6.55752      3.23795         0.001460     -0.000713      0.000794
      9.84181      6.52353      9.84558         0.002560      0.002090     -0.000277
      3.22135      3.18956     -0.04850         0.000886     -0.000196     -0.000374
      3.25438      3.27131      6.54091        -0.000238     -0.003508      0.000222
      3.21537      9.90404      0.04641        -0.001673     -0.001474      0.000389
      3.25162      9.81208      6.55140         0.000796     -0.002826     -0.001832
      9.87131      3.17860      0.06349        -0.000002      0.000247      0.001637
      9.83199      3.26677      6.54994         0.000829      0.000583     -0.001278
      9.87009      9.90708     -0.06841         0.000291      0.000170      0.000104
      9.82796      9.81098      6.53520        -0.000783     -0.000459     -0.000132
      1.64268      1.63246      4.89413        -0.006283     -0.002846      0.000929
      1.53421      1.51388     11.56715         0.004069      0.000415      0.004361
      1.62364      8.18931      4.88397        -0.004177      0.002380      0.004977
      1.62048      8.21708     11.46119        -0.002293     -0.000395      0.001627
      8.18290      1.64948      4.90373        -0.001245      0.000188     -0.001293
      8.19474      1.62920     11.44873        -0.000546     -0.001036     -0.004159
      8.18540      8.17274      4.89474         0.002679      0.003467     -0.005837
      8.19518      8.18173     11.45790        -0.004283      0.001289     -0.001618
      1.62238      4.86969      1.62996         0.001624      0.001479      0.001606
      1.62470      4.90164      8.19642         0.003282     -0.000929     -0.001142
      1.52315     11.56987      1.52634         0.005832      0.007415     -0.000791
      1.64245     11.45285      8.19428        -0.000579      0.006349      0.001772
      8.19335      4.90087      1.62605         0.001118     -0.002633      0.000262
      8.19062      4.91236      8.18749         0.000984      0.002586     -0.000712
      8.19481     11.45749      1.63840        -0.002638      0.002589     -0.004096
      8.18443     11.43692      8.17874        -0.000229     -0.007400      0.001327
      4.89741      1.62763      1.64591        -0.000336     -0.009125     -0.002039
      4.91307      1.64981      8.17923        -0.002816      0.004080     -0.000802
      4.88373      8.18931      1.62448        -0.003889      0.005164     -0.001442
      4.90171      8.16643      8.18430         0.000771      0.004772     -0.003334
     11.58030      1.50174      1.51476         0.001261     -0.004129      0.000414
     11.44965      1.62700      8.19429         0.001065     -0.001222      0.002269
     11.46335      8.21535      1.61677        -0.007415     -0.003175     -0.000741
     11.45749      8.18043      8.19505         0.003695      0.002743      0.008750
      4.90042      4.91992      4.90452        -0.000852      0.006296     -0.003366
      4.89130      4.90503     11.46053         0.002293      0.003942      0.006763
      4.90340     11.43650      4.90507        -0.003888      0.002232      0.000308
      4.89847     11.45966     11.44208        -0.007679     -0.002755     -0.002463
     11.45756      4.90566      4.89184        -0.006931     -0.002977     -0.002165
     11.46650      4.87092     11.47151         0.001056     -0.004932      0.000079
     11.44216     11.46093      4.89737         0.004493      0.000633      0.002664
     11.58015     11.58393     11.57361         0.000079      0.006994      0.001498
 -----------------------------------------------------------------------------------
    total drift:                                0.010698     -0.009107     -0.034764


--------------------------------------------------------------------------------------------------------



  FREE ENERGIE OF THE ION-ELECTRON SYSTEM (eV)
  ---------------------------------------------------
  free  energy   TOTEN  =      -205.68751715 eV

  energy  without entropy=     -205.68263470  energy(sigma->0) =     -205.68507593
 
 d Force = 0.2498956E-04[-0.132E-04, 0.632E-04]  d Energy = 0.1908212E-04 0.591E-05
 d Force = 0.1887151E-01[ 0.187E-01, 0.191E-01]  d Ewald  = 0.1887151E-01-0.228E-08


--------------------------------------------------------------------------------------------------------


    POTLOK:  cpu time    1.1620: real time    1.1626


--------------------------------------------------------------------------------------------------------


 Conjugate gradient step on ions:
 trial-energy change:   -0.000019  1 .order   -0.000025   -0.000063    0.000013
  (g-gl).g = 0.322E-04      g.g   = 0.504E-04  gl.gl    = 0.358E-04
 g(Force)  = 0.504E-04   g(Stress)= 0.000E+00 ortho     = 0.217E-06
 gamma     =   0.90138
 trial     =   1.24866
 opt step  =   1.03300  (harmonic =   1.03300) maximal distance =0.00034131
 next E    =  -205.687524   (d E  =  -0.00003)


--------------------------------------------------------------------------------------------------------


  
 reached required accuracy - stopping structural energy minimisation
     LOOP+:  cpu time  114.7259: real time  116.9191
    4ORBIT:  cpu time    0.0000: real time    0.0000
 


 total charge     
 
# of ion       s       p       d       tot
------------------------------------------
    1        0.420   0.294   9.589  10.303
    2        0.420   0.295   9.589  10.304
    3        0.422   0.292   9.588  10.302
    4        0.420   0.295   9.589  10.304
    5        0.420   0.291   9.590  10.300
    6        0.422   0.292   9.588  10.302
    7        0.421   0.295   9.589  10.304
    8        0.424   0.291   9.588  10.303
    9        0.423   0.290   9.588  10.301
   10        0.423   0.292   9.588  10.303
   11        0.424   0.291   9.588  10.303
   12        0.421   0.294   9.589  10.304
   13        0.421   0.294   9.589  10.304
   14        0.421   0.294   9.589  10.304
   15        0.420   0.294   9.589  10.304
   16        0.423   0.293   9.588  10.303
   17        0.423   0.292   9.588  10.302
   18        0.421   0.294   9.589  10.304
   19        0.421   0.294   9.589  10.303
   20        0.423   0.291   9.588  10.302
   21        0.423   0.290   9.588  10.301
   22        0.421   0.293   9.589  10.303
   23        0.421   0.294   9.589  10.303
   24        0.423   0.291   9.588  10.302
   25        0.421   0.294   9.589  10.304
   26        0.423   0.292   9.588  10.303
   27        0.421   0.294   9.589  10.304
   28        0.423   0.290   9.588  10.301
   29        0.421   0.294   9.589  10.304
   30        0.423   0.290   9.588  10.301
   31        0.421   0.294   9.589  10.304
   32        1.290   2.293   0.017   3.600
   33        1.310   2.225   0.018   3.552
   34        1.292   2.284   0.017   3.593
   35        1.290   2.290   0.017   3.598
   36        1.290   2.293   0.017   3.601
   37        1.290   2.292   0.017   3.599
   38        1.291   2.292   0.017   3.600
   39        1.292   2.286   0.017   3.595
   40        1.290   2.290   0.017   3.598
   41        1.292   2.283   0.017   3.593
   42        1.310   2.224   0.018   3.552
   43        1.290   2.293   0.017   3.600
   44        1.292   2.285   0.017   3.594
   45        1.291   2.292   0.017   3.601
   46        1.290   2.292   0.017   3.599
   47        1.290   2.293   0.017   3.600
   48        1.290   2.293   0.017   3.600
   49        1.291   2.291   0.017   3.599
   50        1.292   2.285   0.017   3.594
   51        1.291   2.292   0.017   3.600
   52        1.310   2.228   0.018   3.557
   53        1.290   2.292   0.017   3.599
   54        1.291   2.290   0.017   3.597
   55        1.292   2.286   0.017   3.595
   56        1.291   2.292   0.017   3.600
   57        1.292   2.284   0.017   3.594
   58        1.291   2.291   0.017   3.600
   59        1.290   2.293   0.017   3.600
   60        1.292   2.286   0.017   3.595
   61        1.291   2.289   0.017   3.597
   62        1.290   2.292   0.017   3.599
   63        1.310   2.229   0.018   3.558
--------------------------------------------------
tot         54.451  82.093 297.801 434.346
 

 total amount of memory used by VASP MPI-rank0    77526. kBytes
=======================================================================

   base      :      30000. kBytes
   nonlr-proj:       3273. kBytes
   fftplans  :       6877. kBytes
   grid      :      11280. kBytes
   one-center:         46. kBytes
   HF        :        129. kBytes
   wavefun   :       2812. kBytes
   fock_wrk  :      23109. kBytes
 
  
  
 General timing and accounting informations for this job:
 ========================================================
  
                  Total CPU time used (sec):    11914.935
                            User time (sec):    11845.472
                          System time (sec):       69.462
                         Elapsed time (sec):    12121.922
  
                   Maximum memory used (kb):      302824.
                   Average memory used (kb):           0.
  
                          Minor page faults:      1329526
                          Major page faults:           13
                 Voluntary context switches:        80160
