 vasp.6.1.1 19Jun20 (build Oct 26 2020 17:25:13) gamma-only                     
  
 executed on             LinuxIFC date 2021.02.17  20:42:36
 running on   48 total cores
 distrk:  each k-point on   48 cores,    1 groups
 distr:  one band on NCORE=  12 cores,    4 groups


--------------------------------------------------------------------------------------------------------


 INCAR:
 POTCAR:    PAW_PBE Cd 06Sep2000                  
 POTCAR:    PAW_PBE Te 08Apr2002                  
 POTCAR:    PAW_PBE Cd 06Sep2000                  
   VRHFIN =Cd : s2 d10                                                                              
   LEXCH  = PE                                                                                      
   EATOM  =  1293.1815 eV,   95.0462 Ry                                                             
                                                                                                    
   TITEL  = PAW_PBE Cd 06Sep2000                                                                    
   LULTRA =        F    use ultrasoft PP ?                                                          
   IUNSCR =        1    unscreen: 0-lin 1-nonlin 2-no                                               
   RPACOR =    2.000    partial core radius                                                         
   POMASS =  112.411; ZVAL   =   12.000    mass and valenz                                          
   RCORE  =    2.300    outmost cutoff radius                                                       
   RWIGS  =    2.980; RWIGS  =    1.577    wigner-seitz radius (au A)                               
   ENMAX  =  274.336; ENMIN  =  205.752 eV                                                          
   RCLOC  =    2.054    cutoff for local pot                                                        
   LCOR   =        T    correct aug charges                                                         
   LPAW   =        T    paw PP                                                                      
   EAUG   =  456.106                                                                                
   DEXC   =    0.000                                                                                
   RMAX   =    2.358    core radius for proj-oper                                                   
   RAUG   =    1.300    factor for augmentation sphere                                              
   RDEP   =    2.450    radius for radial grids                                                     
   RDEPT  =    1.955    core radius for aug-charge                                                  
                                                                                                    
   Atomic configuration                                                                             
   12 entries                                                                                       
     n  l   j            E        occ.                                                              
     1  0  0.50    -26519.7817   2.0000                                                             
     2  0  0.50     -3936.9612   2.0000                                                             
     2  1  1.50     -3532.2230   6.0000                                                             
     3  0  0.50      -733.7908   2.0000                                                             
     3  1  1.50      -601.0792   6.0000                                                             
     3  2  2.50      -393.5307  10.0000                                                             
     4  0  0.50      -105.8977   2.0000                                                             
     4  1  1.50       -66.9488   6.0000                                                             
     4  2  2.50       -11.7331  10.0000                                                             
     5  0  0.50        -5.6592   2.0000                                                             
     5  1  0.50        -1.3606   0.0000                                                             
     4  3  2.50        -1.3606   0.0000                                                             
   Description                                                                                      
     l       E           TYP  RCUT    TYP  RCUT                                                     
     2    -11.7331479     23  2.300                                                                 
     2    -13.0937305     23  2.300                                                                 
     0     -5.6591502     23  2.300                                                                 
     0     -1.5561433     23  2.300                                                                 
     1     -2.7211652     23  2.300                                                                 
     1      8.3548275     23  2.300                                                                 
  local pseudopotential read in
  partial core-charges read in
  partial kinetic energy density read in
  atomic valenz-charges read in
  non local Contribution for L=           2  read in
    real space projection operators read in
  non local Contribution for L=           2  read in
    real space projection operators read in
  non local Contribution for L=           0  read in
    real space projection operators read in
  non local Contribution for L=           0  read in
    real space projection operators read in
  non local Contribution for L=           1  read in
    real space projection operators read in
  non local Contribution for L=           1  read in
    real space projection operators read in
    PAW grid and wavefunctions read in
 
   number of l-projection  operators is LMAX  =           6
   number of lm-projection operators is LMMAX =          18
 
 POTCAR:    PAW_PBE Te 08Apr2002                  
   VRHFIN =Te: s2p4                                                                                 
   LEXCH  = PE                                                                                      
   EATOM  =   223.2721 eV,   16.4100 Ry                                                             
                                                                                                    
   TITEL  = PAW_PBE Te 08Apr2002                                                                    
   LULTRA =        F    use ultrasoft PP ?                                                          
   IUNSCR =        1    unscreen: 0-lin 1-nonlin 2-no                                               
   RPACOR =    2.200    partial core radius                                                         
   POMASS =  127.600; ZVAL   =    6.000    mass and valenz                                          
   RCORE  =    2.300    outmost cutoff radius                                                       
   RWIGS  =    2.900; RWIGS  =    1.535    wigner-seitz radius (au A)                               
   ENMAX  =  174.982; ENMIN  =  131.236 eV                                                          
   ICORE  =        3    local potential                                                             
   LCOR   =        T    correct aug charges                                                         
   LPAW   =        T    paw PP                                                                      
   EAUG   =  368.792                                                                                
   DEXC   =    0.000                                                                                
   RMAX   =    2.345    core radius for proj-oper                                                   
   RAUG   =    1.300    factor for augmentation sphere                                              
   RDEP   =    2.397    radius for radial grids                                                     
   RDEPT  =    2.174    core radius for aug-charge                                                  
                                                                                                    
   Atomic configuration                                                                             
   13 entries                                                                                       
     n  l   j            E        occ.                                                              
     1  0  0.50    -31621.2075   2.0000                                                             
     2  0  0.50     -4848.7941   2.0000                                                             
     2  1  1.50     -4352.1960   6.0000                                                             
     3  0  0.50      -964.9612   2.0000                                                             
     3  1  1.50      -803.6179   6.0000                                                             
     3  2  2.50      -559.8710  10.0000                                                             
     4  0  0.50      -164.3522   2.0000                                                             
     4  1  1.50      -114.3756   6.0000                                                             
     4  2  2.50       -41.6483  10.0000                                                             
     5  0  0.50       -15.1072   2.0000                                                             
     5  1  0.50        -5.9526   4.0000                                                             
     5  2  1.50        -5.4423   0.0000                                                             
     4  3  2.50        -5.4423   0.0000                                                             
   Description                                                                                      
     l       E           TYP  RCUT    TYP  RCUT                                                     
     0    -15.1072389     23  2.300                                                                 
     0    -16.4678215     23  2.300                                                                 
     1     -5.9526306     23  2.300                                                                 
     1     -2.4873968     23  2.300                                                                 
     2     -5.4423304     23  2.300                                                                 
     3     -1.3605826     23  2.300                                                                 
  local pseudopotential read in
  partial core-charges read in
  partial kinetic energy density read in
  atomic valenz-charges read in
  non local Contribution for L=           0  read in
    real space projection operators read in
  non local Contribution for L=           0  read in
    real space projection operators read in
  non local Contribution for L=           1  read in
    real space projection operators read in
  non local Contribution for L=           1  read in
    real space projection operators read in
  non local Contribution for L=           2  read in
    real space projection operators read in
    PAW grid and wavefunctions read in
 
   number of l-projection  operators is LMAX  =           5
   number of lm-projection operators is LMMAX =          13
 
 Optimization of the real space projectors (new method)

 maximal supplied QI-value         = 16.25
 optimisation between [QCUT,QGAM] = [ 10.73, 21.61] = [ 32.22,130.83] Ry 
 Optimized for a Real-space Cutoff    1.34 Angstroem

   l    n(q)    QCUT    max X(q) W(low)/X(q) W(high)/X(q)  e(spline) 
   2      8    10.726    73.106    0.62E-03    0.58E-03    0.13E-06
   2      8    10.726    71.731    0.63E-03    0.59E-03    0.13E-06
   0      9    10.726   146.509    0.37E-03    0.31E-03    0.93E-07
   0      9    10.726    95.017    0.35E-03    0.30E-03    0.90E-07
   1      8    10.726    36.165    0.40E-03    0.62E-04    0.20E-06
   1      8    10.726    31.530    0.37E-03    0.46E-04    0.19E-06
 Optimization of the real space projectors (new method)

 maximal supplied QI-value         = 16.25
 optimisation between [QCUT,QGAM] = [ 10.73, 21.61] = [ 32.22,130.83] Ry 
 Optimized for a Real-space Cutoff    1.26 Angstroem

   l    n(q)    QCUT    max X(q) W(low)/X(q) W(high)/X(q)  e(spline) 
   0      8    10.726   224.858    0.42E-03    0.29E-03    0.13E-06
   0      8    10.726   205.313    0.42E-03    0.29E-03    0.14E-06
   1      8    10.726   119.695    0.28E-03    0.65E-03    0.18E-06
   1      8    10.726    84.282    0.28E-03    0.64E-03    0.18E-06
   2      7    10.726     5.599    0.26E-03    0.18E-03    0.37E-07
  PAW_PBE Cd 06Sep2000                  :
 energy of atom  1       EATOM=-1293.1815
 kinetic energy error for atom=    0.0084 (will be added to EATOM!!)
  PAW_PBE Te 08Apr2002                  :
 energy of atom  2       EATOM= -223.2721
 kinetic energy error for atom=    0.0008 (will be added to EATOM!!)
 
 
 POSCAR: -40.0%_BDM_Distortion_vac_1_Cd[0. 0. 0.]
  positions in direct lattice
  No initial velocities read in
 exchange correlation table for  LEXCH =        8
   RHO(1)=    0.500       N(1)  =     2000
   RHO(2)=  100.500       N(2)  =     4000
 


--------------------------------------------------------------------------------------------------------


 ion  position               nearest neighbor table
   1  0.009  0.997  0.512-  53 2.50  43 2.62  62 2.84  32 3.03
   2  0.029  0.496  0.996-  40 2.48  35 2.49  54 3.02  61 3.17
   3  0.030  0.515  0.491-  34 2.29  60 2.66  55 2.92  41 3.27
   4  0.510  0.991  0.991-  59 2.63  48 2.67  46 3.05  37 3.07
   5  0.505  0.963  0.467-  58 2.50  47 3.13  36 3.29  49 3.33
   6  0.489  0.481  0.006-  44 2.89  57 2.94  39 3.13  50 3.17
   7  0.483  0.473  0.528-  45 2.23  56 2.28  51 2.71  38 3.06
   8  0.996  0.251  0.223-  40 2.60  52 2.63  32 2.88  60 3.32
   9  0.990  0.252  0.728-  53 2.48  61 2.55  41 2.60  33 3.11
  10  0.007  0.739  0.244-  54 2.70  34 2.86  62 3.02  42 3.13
  11  0.989  0.785  0.750-  63 2.29  43 2.45  55 2.95  35 3.28
  12  0.480  0.266  0.227-  44 2.44  48 2.79  36 3.13  56 3.18
  13  0.504  0.213  0.725-  49 2.48  37 2.51  45 3.02  57 3.14
  14  0.504  0.764  0.253-  58 2.90  46 2.93  50 3.08  38 3.26
  15  0.498  0.744  0.722-  51 2.57  47 2.63  39 2.97  59 3.17
  16  0.236  0.991  0.270-  32 2.47  58 2.66  48 3.14  42 3.26
  17  0.257  0.966  0.756-  59 2.45  43 2.92  33 3.12  49 3.45
  18  0.243  0.487  0.262-  34 2.56  40 2.70  50 2.94  56 2.96  25 3.66
  19  0.270  0.518  0.734-  51 2.62  41 2.90  57 2.93  35 2.94
  20  0.744  0.006  0.269-  36 2.88  46 2.98  62 3.00  52 3.17
  21  0.741  0.996  0.729-  37 2.63  47 2.65  63 3.00  53 3.31
  22  0.727  0.516  0.276-  38 2.75  54 3.00  44 3.31  60 3.58
  23  0.749  0.519  0.757-  39 2.70  55 2.72  61 3.05  45 3.24
  24  0.238  0.257  0.029-  40 2.92  33 2.97  57 3.14  48 3.27
  25  0.249  0.280  0.450-  56 2.33  32 3.04  41 3.17  49 3.19  18 3.66
  26  0.266  0.752  0.994-  50 2.59  59 2.83  35 3.12
  27  0.252  0.712  0.496-  51 2.50  34 2.83  58 2.95  43 3.25
  28  0.757  0.278  0.990-  61 2.67  44 2.72  52 2.97  37 3.29
  29  0.735  0.240  0.517-  36 2.48  45 2.79  53 2.91  60 3.02
  30  0.756  0.740  0.010-  46 2.51  39 2.88  54 2.98  63 3.12
  31  0.752  0.769  0.487-  62 2.54  47 2.61  38 2.64  55 3.49
  32  0.119  0.118  0.347-  16 2.47   8 2.88   1 3.03  25 3.04
  33  0.131  0.130  0.875-  24 2.97   9 3.11  17 3.12
  34  0.121  0.598  0.367-   3 2.29  18 2.56  27 2.83  10 2.86
  35  0.118  0.610  0.872-   2 2.49  19 2.94  26 3.12  11 3.28
  36  0.633  0.161  0.378-  29 2.48  20 2.88  12 3.13   5 3.29
  37  0.630  0.124  0.838-  13 2.51  21 2.63   4 3.07  28 3.29
  38  0.624  0.626  0.422-  31 2.64  22 2.75   7 3.06  14 3.26
  39  0.621  0.631  0.874-  23 2.70  30 2.88  15 2.97   6 3.13
  40  0.103  0.397  0.139-   2 2.48   8 2.60  18 2.70  24 2.92
  41  0.140  0.358  0.652-   9 2.60  19 2.90  25 3.17   3 3.27
  42  0.048  0.936  0.117-  10 3.13  16 3.26  52 3.37
  43  0.106  0.864  0.627-  11 2.45   1 2.62  17 2.92  27 3.25
  44  0.615  0.345  0.126-  12 2.44  28 2.72   6 2.89  22 3.31
  45  0.605  0.384  0.607-   7 2.23  29 2.79  13 3.02  23 3.24
  46  0.655  0.860  0.119-  30 2.51  14 2.93  20 2.98   4 3.05
  47  0.641  0.851  0.629-  31 2.61  15 2.63  21 2.65   5 3.13
  48  0.400  0.094  0.129-   4 2.67  12 2.79  16 3.14  24 3.27
  49  0.380  0.140  0.601-  13 2.48  25 3.19   5 3.33  17 3.45
  50  0.350  0.635  0.131-  26 2.59  18 2.94  14 3.08   6 3.17
  51  0.380  0.632  0.612-  27 2.50  15 2.57  19 2.62   7 2.71
  52  0.879  0.131  0.111-   8 2.63  28 2.97  20 3.17  42 3.37
  53  0.911  0.134  0.602-   9 2.48   1 2.50  29 2.91  21 3.31
  54  0.888  0.606  0.140-  10 2.70  30 2.98  22 3.00   2 3.02
  55  0.897  0.609  0.643-  23 2.72   3 2.92  11 2.95  31 3.49
  56  0.383  0.391  0.411-   7 2.28  25 2.33  18 2.96  12 3.18
  57  0.370  0.361  0.858-  19 2.93   6 2.94  13 3.14  24 3.14
  58  0.359  0.874  0.382-   5 2.50  16 2.66  14 2.90  27 2.95
  59  0.380  0.891  0.875-  17 2.45   4 2.63  26 2.83  15 3.17
  60  0.903  0.370  0.427-   3 2.66  29 3.02   8 3.32  22 3.58
  61  0.887  0.359  0.855-   9 2.55  28 2.67  23 3.05   2 3.17
  62  0.884  0.871  0.389-  31 2.54   1 2.84  20 3.00  10 3.02
  63  0.884  0.874  0.859-  11 2.29  21 3.00  30 3.12
 

IMPORTANT INFORMATION: All symmetrisations will be switched off!
NOSYMM: (Re-)initialisation of all symmetry stuff for point group C_1.


----------------------------------------------------------------------------------------

                                     Primitive cell                                     

  volume of cell :    2241.2856

  direct lattice vectors                    reciprocal lattice vectors
    13.086768000  0.000000000  0.000000000     0.076413061  0.000000000  0.000000000
     0.000000000 13.086768000  0.000000000     0.000000000  0.076413061  0.000000000
     0.000000000  0.000000000 13.086768000     0.000000000  0.000000000  0.076413061

  length of vectors
    13.086768000 13.086768000 13.086768000     0.076413061  0.076413061  0.076413061

  position of ions in fractional coordinates (direct lattice)
     0.009489000  0.997359000  0.512373000
     0.029095000  0.495527000  0.995527000
     0.030168000  0.514661000  0.491032000
     0.510365000  0.991147000  0.991103000
     0.504622000  0.963450000  0.467048000
     0.489258000  0.480652000  0.006003000
     0.482654000  0.473020000  0.527999000
     0.995687000  0.251290000  0.222783000
     0.989601000  0.252119000  0.728012000
     0.007177000  0.738526000  0.244428000
     0.988505000  0.785385000  0.749742000
     0.479794000  0.265713000  0.226678000
     0.503990000  0.212564000  0.724627000
     0.503761000  0.764107000  0.253274000
     0.497791000  0.744248000  0.721755000
     0.236249000  0.991200000  0.270194000
     0.256564000  0.966320000  0.756191000
     0.242644000  0.487069000  0.261685000
     0.269695000  0.517790000  0.733968000
     0.744093000  0.006328000  0.268636000
     0.740846000  0.996453000  0.728865000
     0.727149000  0.515522000  0.275909000
     0.748624000  0.519171000  0.756908000
     0.237676000  0.256904000  0.029382000
     0.249316000  0.279890000  0.449954000
     0.265701000  0.751663000  0.994288000
     0.251753000  0.712031000  0.495804000
     0.756822000  0.278233000  0.990099000
     0.734555000  0.240415000  0.517487000
     0.756280000  0.739880000  0.009805000
     0.751854000  0.768504000  0.486588000
     0.118741000  0.117509000  0.347042000
     0.130657000  0.129987000  0.875098000
     0.120519000  0.597962000  0.366964000
     0.118453000  0.609674000  0.871919000
     0.632719000  0.161032000  0.378335000
     0.629920000  0.123578000  0.838345000
     0.624493000  0.626151000  0.422056000
     0.621325000  0.630761000  0.874337000
     0.102674000  0.396832000  0.139364000
     0.140111000  0.357628000  0.651798000
     0.048220000  0.936211000  0.116845000
     0.106078000  0.864182000  0.626904000
     0.615382000  0.345377000  0.126310000
     0.604707000  0.384047000  0.607436000
     0.654609000  0.860037000  0.118848000
     0.640541000  0.851486000  0.629345000
     0.399971000  0.094292000  0.128527000
     0.379965000  0.139935000  0.601370000
     0.349775000  0.634971000  0.130673000
     0.379785000  0.631618000  0.612009000
     0.879437000  0.130599000  0.111354000
     0.910642000  0.134052000  0.602242000
     0.887542000  0.606380000  0.140036000
     0.897133000  0.609322000  0.643404000
     0.382885000  0.390704000  0.411235000
     0.370312000  0.360601000  0.858007000
     0.359415000  0.873527000  0.381517000
     0.380286000  0.890802000  0.875248000
     0.902767000  0.369944000  0.426964000
     0.886952000  0.358625000  0.854542000
     0.884217000  0.870731000  0.388640000
     0.884040000  0.873609000  0.858823000

  ion indices of the primitive-cell ions
   primitive index   ion index
                 1           1
                 2           2
                 3           3
                 4           4
                 5           5
                 6           6
                 7           7
                 8           8
                 9           9
                10          10
                11          11
                12          12
                13          13
                14          14
                15          15
                16          16
                17          17
                18          18
                19          19
                20          20
                21          21
                22          22
                23          23
                24          24
                25          25
                26          26
                27          27
                28          28
                29          29
                30          30
                31          31
                32          32
                33          33
                34          34
                35          35
                36          36
                37          37
                38          38
                39          39
                40          40
                41          41
                42          42
                43          43
                44          44
                45          45
                46          46
                47          47
                48          48
                49          49
                50          50
                51          51
                52          52
                53          53
                54          54
                55          55
                56          56
                57          57
                58          58
                59          59
                60          60
                61          61
                62          62
                63          63

----------------------------------------------------------------------------------------

 
 
 KPOINTS: Kpoints from DefectsWithTheBoys.vasp_gam

Automatic generation of k-mesh.
Space group operators:
 irot       det(A)        alpha          n_x          n_y          n_z        tau_x        tau_y        tau_z
    1     1.000000     0.000000     1.000000     0.000000     0.000000     0.000000     0.000000     0.000000
 
 Subroutine IBZKPT returns following result:
 ===========================================
 
 Found      1 irreducible k-points:
 
 Following reciprocal coordinates:
            Coordinates               Weight
  0.000000  0.000000  0.000000      1.000000
 
 Following cartesian coordinates:
            Coordinates               Weight
  0.000000  0.000000  0.000000      1.000000
 
 
 Subroutine IBZKPT_HF returns following result:
 ==============================================
 
 Found      1 k-points in 1st BZ
 the following      1 k-points will be used (e.g. in the exchange kernel)
 Following reciprocal coordinates:   # in IRBZ
  0.000000  0.000000  0.000000    1.00000000   1 t-inv F


--------------------------------------------------------------------------------------------------------




 Dimension of arrays:
   k-points           NKPTS =      1   k-points in BZ     NKDIM =      1   number of bands    NBANDS=    340
   number of dos      NEDOS =   2000   number of ions     NIONS =     63
   non local maximal  LDIM  =      6   non local SUM 2l+1 LMDIM =     18
   total plane-waves  NPLWV = 884736
   max r-space proj   IRMAX =   4034   max aug-charges    IRDMAX=  23156
   dimension x,y,z NGX =    96 NGY =   96 NGZ =   96
   dimension x,y,z NGXF=   192 NGYF=  192 NGZF=  192
   support grid    NGXF=   192 NGYF=  192 NGZF=  192
   ions per type =              31  32
   NGX,Y,Z   is equivalent  to a cutoff of  12.20, 12.20, 12.20 a.u.
   NGXF,Y,Z  is equivalent  to a cutoff of  24.39, 24.39, 24.39 a.u.

 SYSTEM =  unknown system                          
 POSCAR =  -40.0%_BDM_Distortion_vac_1_Cd[0. 0. 0.]

 Startparameter for this run:
   NWRITE =      2    write-flag & timer
   PREC   = accura    normal or accurate (medium, high low for compatibility)
   ISTART =      0    job   : 0-new  1-cont  2-samecut
   ICHARG =      1    charge: 1-file 2-atom 10-const
   ISPIN  =      1    spin polarized calculation?
   LNONCOLLINEAR =      F non collinear calculations
   LSORBIT =      F    spin-orbit coupling
   INIWAV =      1    electr: 0-lowe 1-rand  2-diag
   LASPH  =      T    aspherical Exc in radial PAW
   METAGGA=      F    non-selfconsistent MetaGGA calc.

 Electronic Relaxation 1
   ENCUT  =  450.0 eV  33.07 Ry    5.75 a.u.  22.64 22.64 22.64*2*pi/ulx,y,z
   ENINI  =  450.0     initial cutoff
   ENAUG  =  456.1 eV  augmentation charge cutoff
   NELM   =    100;   NELMIN=  2; NELMDL= -5     # of ELM steps 
   EDIFF  = 0.5E-05   stopping-criterion for ELM
   LREAL  =      T    real-space projection
   NLSPLINE    = F    spline interpolate recip. space projectors
   LCOMPAT=      F    compatible to vasp.4.4
   GGA_COMPAT  = T    GGA compatible to vasp.4.4-vasp.4.6
   LMAXPAW     = -100 max onsite density
   LMAXMIX     =    2 max onsite mixed and CHGCAR
   VOSKOWN=      0    Vosko Wilk Nusair interpolation
   ROPT   =   -0.00100  -0.00100
 Ionic relaxation
   EDIFFG = -.1E-01   stopping-criterion for IOM
   NSW    =    300    number of steps for IOM
   NBLOCK =      1;   KBLOCK =    300    inner block; outer block 
   IBRION =      2    ionic relax: 0-MD 1-quasi-New 2-CG
   NFREE  =      1    steps in history (QN), initial steepest desc. (CG)
   ISIF   =      2    stress and relaxation
   IWAVPR =     11    prediction:  0-non 1-charg 2-wave 3-comb
   ISYM   =      0    0-nonsym 1-usesym 2-fastsym
   LCORR  =      T    Harris-Foulkes like correction to forces

   POTIM  = 0.2000    time-step for ionic-motion
   TEIN   =    0.0    initial temperature
   TEBEG  =    0.0;   TEEND  =   0.0 temperature during run
   SMASS  =  -3.00    Nose mass-parameter (am)
   estimated Nose-frequenzy (Omega)   =  0.10E-29 period in steps = 0.31E+47 mass=  -0.391E-26a.u.
   SCALEE = 1.0000    scale energy and forces
   NPACO  =    256;   APACO  = 16.0  distance and # of slots for P.C.
   PSTRESS=    0.0 pullay stress

  Mass of Ions in am
   POMASS = 112.41127.60
  Ionic Valenz
   ZVAL   =  12.00  6.00
  Atomic Wigner-Seitz radii
   RWIGS  =  -1.00 -1.00
  virtual crystal weights 
   VCA    =   1.00  1.00
   NELECT =     565.0000    total number of electrons
   NUPDOWN=       1.0000    fix difference up-down

 DOS related values:
   EMIN   =  10.00;   EMAX   =-10.00  energy-range for DOS
   EFERMI =   0.00
   ISMEAR =     0;   SIGMA  =   0.05  broadening in eV -4-tet -1-fermi 0-gaus

 Electronic relaxation 2 (details)
   IALGO  =     38    algorithm
   LDIAG  =      T    sub-space diagonalisation (order eigenvalues)
   LSUBROT=      F    optimize rotation matrix (better conditioning)
   TURBO    =      0    0=normal 1=particle mesh
   IRESTART =      0    0=no restart 2=restart with 2 vectors
   NREBOOT  =      0    no. of reboots
   NMIN     =      0    reboot dimension
   EREF     =   0.00    reference energy to select bands
   IMIX   =      1    mixing-type and parameters
     AMIX     =   0.40;   BMIX     =  1.00
     AMIX_MAG =   1.60;   BMIX_MAG =  1.00
     AMIN     =   0.10
     WC   =   100.;   INIMIX=   1;  MIXPRE=   1;  MAXMIX= -45

 Intra band minimization:
   WEIMIN = 0.0010     energy-eigenvalue tresh-hold
   EBREAK =  0.37E-08  absolut break condition
   DEPER  =   0.30     relativ break condition  

   TIME   =   0.40     timestep for ELM

  volume/ion in A,a.u.               =      35.58       240.08
  Fermi-wavevector in a.u.,A,eV,Ry     =   1.034170  1.954298 14.551532  1.069507
  Thomas-Fermi vector in A             =   2.168452
 
 Write flags
   LWAVE        =      F    write WAVECAR
   LDOWNSAMPLE  =      F    k-point downsampling of WAVECAR
   LCHARG       =      T    write CHGCAR
   LVTOT        =      F    write LOCPOT, total local potential
   LVHAR        =      F    write LOCPOT, Hartree potential only
   LELF         =      F    write electronic localiz. function (ELF)
   LORBIT       =     11    0 simple, 1 ext, 2 COOP (PROOUT), +10 PAW based schemes


 Dipole corrections
   LMONO  =      F    monopole corrections only (constant potential shift)
   LDIPOL =      F    correct potential (dipole corrections)
   IDIPOL =      0    1-x, 2-y, 3-z, 4-all directions 
   EPSILON=  1.0000000 bulk dielectric constant

 Exchange correlation treatment:
   GGA     =    --    GGA type
   LEXCH   =     8    internal setting for exchange type
   VOSKOWN=      0    Vosko Wilk Nusair interpolation
   EXXOEP  =     0    0=HF, 1=EXX-LHF (local Hartree Fock) 2=EXX OEP
   LHFCALC =     T    Hartree Fock is set to
   LSYMGRAD=     F    symmetrize gradient (conserves proper symmetry)
   PRECFOCK=fast      Normal, Fast or Accurate (Low or Medium for compatibility)
   LRHFCALC=     F    long range Hartree Fock
   LRSCOR  =     F    long range correlation only (use DFT for short range part)
   LTHOMAS =     F    Thomas Fermi screening in HF
   LMODELHF=     F    short range full HF, long range fraction AEXX
   LFOCKACE=     T    use Adeptively-Compressed-Exchange operator
   ENCUT4O =  -1.0   cutoff for four orbital integrals eV
   LMAXFOCK=     4    L truncation for augmentation on plane wave grid
   LMAXFOCKAE=  -1    L truncation for all-electron charge restoration on plane wave grid
   NMAXFOCKAE=   1    number of basis functions for all-electron charge restoration
   LFOCKAEDFT=     F  apply the AE augmentation even for DFT
   NKREDX  =     1    reduce k-point grid by
   NKREDY  =     1    reduce k-point grid by
   NKREDZ  =     1    reduce k-point grid by
   SHIFTRED=     F    shift reduced grid of Gamma
   HFKIDENT=     F    idential grid for each k-point
   ODDONLY =     F    use only odd q-grid points
   EVENONLY=     F    use only even q-grid points
   HFALPHA =   -1.0000 decay constant for conv. correction
   MCALPHA =    0.0000 extent of test-charge in conv. correction in multipole expansion
   AEXX    =    0.3450 exact exchange contribution
   HFSCREEN=    0.2000 screening length (either q_TF or 0.3 A-1)
   HFSCREENC=   0.2000 screening length for correlation (either q_TF or 0.3 A-1)
   HFRCUT  =    0.0000 spherical cutoff for potential kernel
   ALDAX   =    0.6550 LDA exchange part
   AGGAX   =    0.6550 GGA exchange part
   ALDAC   =    1.0000 LDA correlation
   AGGAC   =    1.0000 GGA correlation
   ENCUTFOCK=  -1.0 apply spherical cutoff to Coloumb kernel
   NBANDSGWLOW=     1    first orbital included in HF term
   NBLOCK_FOCK=    64    blocking factor in FOCK_ACC
 Linear response parameters
   LEPSILON=     F    determine dielectric tensor
   LRPA    =     F    only Hartree local field effects (RPA)
   LNABLA  =     F    use nabla operator in PAW spheres
   LVEL    =     F    velocity operator in full k-point grid
   LINTERFAST=   F  fast interpolation
   KINTER  =     0    interpolate to denser k-point grid
   CSHIFT  =0.1000    complex shift for real part using Kramers Kronig
   OMEGAMAX=  -1.0    maximum frequency
   DEG_THRESHOLD= 0.2000000E-02 threshold for treating states as degnerate
   RTIME   =   -0.100 relaxation time in fs
  (WPLASMAI=    0.000 imaginary part of plasma frequency in eV, 0.658/RTIME)
   DFIELD  = 0.0000000 0.0000000 0.0000000 field for delta impulse in time
 
 Orbital magnetization related:
   ORBITALMAG=     F  switch on orbital magnetization
   LCHIMAG   =     F  perturbation theory with respect to B field
   DQ        =  0.001000  dq finite difference perturbation B field
   LLRAUG    =     F  two centre corrections for induced B field



--------------------------------------------------------------------------------------------------------


 conjugate gradient relaxation of ions
 charge density and potential will be updated during run
 non-spin polarized calculation
 Variant of blocked Davidson
 Davidson routine will perform the subspace rotation
 perform sub-space diagonalisation
    after iterative eigenvector-optimisation
 Kerker-like  mixing scheme
 using additional bands           57
 real space projection scheme for non local part
 use partial core corrections
 calculate Harris-corrections to forces 
   (improved forces if not selfconsistent)
 use gradient corrections 
 use of overlap-Matrix (Vanderbilt PP)
 Gauss-broadening in eV      SIGMA  =   0.05


--------------------------------------------------------------------------------------------------------


  energy-cutoff  :      450.00
  volume of cell :     2241.29
      direct lattice vectors                 reciprocal lattice vectors
    13.086768000  0.000000000  0.000000000     0.076413061  0.000000000  0.000000000
     0.000000000 13.086768000  0.000000000     0.000000000  0.076413061  0.000000000
     0.000000000  0.000000000 13.086768000     0.000000000  0.000000000  0.076413061

  length of vectors
    13.086768000 13.086768000 13.086768000     0.076413061  0.076413061  0.076413061


 
 k-points in units of 2pi/SCALE and weight: Kpoints from DefectsWithTheBoys.vasp_gam
   0.00000000  0.00000000  0.00000000       1.000
 
 k-points in reciprocal lattice and weights: Kpoints from DefectsWithTheBoys.vasp_gam
   0.00000000  0.00000000  0.00000000       1.000
 
 position of ions in fractional coordinates (direct lattice) 
   0.00948900  0.99735900  0.51237300
   0.02909500  0.49552700  0.99552700
   0.03016800  0.51466100  0.49103200
   0.51036500  0.99114700  0.99110300
   0.50462200  0.96345000  0.46704800
   0.48925800  0.48065200  0.00600300
   0.48265400  0.47302000  0.52799900
   0.99568700  0.25129000  0.22278300
   0.98960100  0.25211900  0.72801200
   0.00717700  0.73852600  0.24442800
   0.98850500  0.78538500  0.74974200
   0.47979400  0.26571300  0.22667800
   0.50399000  0.21256400  0.72462700
   0.50376100  0.76410700  0.25327400
   0.49779100  0.74424800  0.72175500
   0.23624900  0.99120000  0.27019400
   0.25656400  0.96632000  0.75619100
   0.24264400  0.48706900  0.26168500
   0.26969500  0.51779000  0.73396800
   0.74409300  0.00632800  0.26863600
   0.74084600  0.99645300  0.72886500
   0.72714900  0.51552200  0.27590900
   0.74862400  0.51917100  0.75690800
   0.23767600  0.25690400  0.02938200
   0.24931600  0.27989000  0.44995400
   0.26570100  0.75166300  0.99428800
   0.25175300  0.71203100  0.49580400
   0.75682200  0.27823300  0.99009900
   0.73455500  0.24041500  0.51748700
   0.75628000  0.73988000  0.00980500
   0.75185400  0.76850400  0.48658800
   0.11874100  0.11750900  0.34704200
   0.13065700  0.12998700  0.87509800
   0.12051900  0.59796200  0.36696400
   0.11845300  0.60967400  0.87191900
   0.63271900  0.16103200  0.37833500
   0.62992000  0.12357800  0.83834500
   0.62449300  0.62615100  0.42205600
   0.62132500  0.63076100  0.87433700
   0.10267400  0.39683200  0.13936400
   0.14011100  0.35762800  0.65179800
   0.04822000  0.93621100  0.11684500
   0.10607800  0.86418200  0.62690400
   0.61538200  0.34537700  0.12631000
   0.60470700  0.38404700  0.60743600
   0.65460900  0.86003700  0.11884800
   0.64054100  0.85148600  0.62934500
   0.39997100  0.09429200  0.12852700
   0.37996500  0.13993500  0.60137000
   0.34977500  0.63497100  0.13067300
   0.37978500  0.63161800  0.61200900
   0.87943700  0.13059900  0.11135400
   0.91064200  0.13405200  0.60224200
   0.88754200  0.60638000  0.14003600
   0.89713300  0.60932200  0.64340400
   0.38288500  0.39070400  0.41123500
   0.37031200  0.36060100  0.85800700
   0.35941500  0.87352700  0.38151700
   0.38028600  0.89080200  0.87524800
   0.90276700  0.36994400  0.42696400
   0.88695200  0.35862500  0.85454200
   0.88421700  0.87073100  0.38864000
   0.88404000  0.87360900  0.85882300
 
 position of ions in cartesian coordinates  (Angst):
   0.12418034 13.05220585  6.70530658
   0.38075951  6.48484689 13.02823089
   0.39480162  6.73524911  6.42602186
   6.67902835 12.97091084 12.97033503
   6.60387104 12.60844663  6.11214882
   6.40280594  6.29018121  0.07855987
   6.31638092  6.19030300  6.90980042
  13.03032477  3.28857393  2.91550944
  12.95067870  3.29942286  9.52732415
   0.09392373  9.66491842  3.19877253
  12.93633560 10.27815129  9.81169961
   6.27895277  3.47732439  2.96648240
   6.59560020  2.78177575  9.48302544
   6.59260333  9.99969104  3.31453808
   6.51447533  9.73980091  9.44544024
   3.09173585 12.97160444  3.53596619
   3.35759355 12.64600565  9.89609618
   3.17542573  6.37415900  3.42461088
   3.52943590  6.77619760  9.60526894
   9.73777246  0.08281307  3.51557701
   9.69527973 13.04034923  9.53848716
   9.51603026  6.74651681  3.61075707
   9.79706861  6.79427043  9.90547939
   3.11041067  3.36204305  0.38451542
   3.26274065  3.66285550  5.88844361
   3.47716734  9.83683930 13.01201638
   3.29463310  9.31818451  6.48847192
   9.90435393  3.64117072 12.95719591
   9.61295087  3.14625533  6.77223231
   9.89726090  9.68263791  0.12831576
   9.83933887 10.05723356  6.36786427
   1.55393592  1.53781302  4.54165814
   1.70987785  1.70110971 11.45220450
   1.57720419  7.82538997  4.80237273
   1.55016693  7.97866219 11.41060167
   8.28024676  2.10738842  4.95118237
   8.24361690  1.61723662 10.97122652
   8.17259501  8.19429287  5.52334896
   8.13113613  8.25462287 11.44224547
   1.34367082  5.19324832  1.82382434
   1.83360015  4.68019467  8.52992921
   0.63104395 12.25197616  1.52912341
   1.38821818 11.30934934  8.20414721
   8.05336147  4.51986867  1.65298967
   7.91366022  5.02593399  7.94937401
   8.56671611 11.25510469  1.55533620
   8.38261146 11.14319974  8.23609201
   5.23432768  1.23397753  1.68200303
   4.97251380  1.83129688  7.86998967
   4.57742428  8.30971816  1.71008723
   4.97015818  8.26583823  8.00921980
  11.50898799  1.70911881  1.45726396
  11.91736059  1.75430742  7.88140133
  11.61505624  7.93555438  1.83261864
  11.74057144  7.97405565  8.42007888
   5.01072717  5.11305260  5.38173704
   4.84618723  4.71910163 11.22853855
   4.70358072 11.43164519  4.99282447
   4.97671466 11.65771911 11.45416752
  11.81430229  4.84137130  5.58757881
  11.60733505  4.69324217 11.18319290
  11.57154274 11.39505459  5.08604152
  11.56922638 11.43271831 11.23921735
 


--------------------------------------------------------------------------------------------------------


 use parallel FFT for orbitals z direction half grid
 k-point   1 :   0.0000 0.0000 0.0000  plane waves:   24251

 maximum and minimum number of plane-waves per node :      2027     2015

 maximum number of plane-waves:     24251
 maximum index in each direction: 
   IXMAX=   22   IYMAX=   22   IZMAX=   22
   IXMIN=  -22   IYMIN=  -22   IZMIN=    0


 real space projection operators:
  total allocation   :      27383.41 KBytes
  max/ min on nodes  :       2502.82       2123.28


 parallel 3D FFT for wavefunctions:
    minimum data exchange during FFTs selected (reduces bandwidth)
 parallel 3D FFT for charge:
    minimum data exchange during FFTs selected (reduces bandwidth)


 FFT grid for exact exchange (Hartree Fock) 
  NGX = 48; NGY = 48; NGZ = 48

 use parallel FFT for orbitals z direction half grid
 
 Radii for the augmentation spheres in the non-local exchange
 for species   1 augmentation radius   1.444 (default was   1.070)
       energy cutoff for augmentation   1800.0
 for species   2 augmentation radius   1.606 (default was   1.190)
       energy cutoff for augmentation   1800.0

 real space projection operators:
  total allocation   :       9124.80 KBytes
  max/ min on nodes  :        862.50        650.39

 Maximum index for augmentation-charges in exchange           92
  SETUP_FOCK is finished

 total amount of memory used by VASP MPI-rank0    54563. kBytes
=======================================================================

   base      :      30000. kBytes
   nonlr-proj:       3419. kBytes
   fftplans  :       6877. kBytes
   grid      :      11280. kBytes
   one-center:         46. kBytes
   HF        :        129. kBytes
   wavefun   :       2812. kBytes
 
     INWAV:  cpu time    0.0000: real time    0.0000
 initial charge density was supplied:
 charge density of overlapping atoms calculated
 number of electron     564.0000000 magnetization 
 keeping initial charge density in first step


--------------------------------------------------------------------------------------------------------


 Maximum index for non-local projection operator          310
 Maximum index for augmentation-charges          779 (set IRDMAX)


--------------------------------------------------------------------------------------------------------


 First call to EWALD:  gamma=   0.135
 Maximum number of real-space cells 3x 3x 3
 Maximum number of reciprocal cells 3x 3x 3

    FEWALD:  cpu time    0.0041: real time    0.0046


--------------------------------------- Iteration      1(   1)  ---------------------------------------


    POTLOK:  cpu time    0.1174: real time    0.1249
    SETDIJ:  cpu time    0.5846: real time    0.5875
     EDDAV:  cpu time    2.1313: real time    2.1795
       DOS:  cpu time    0.0009: real time    0.0012
    --------------------------------------------
      LOOP:  cpu time    2.8342: real time    2.8932

 eigenvalue-minimisations  :   800
 total energy-change (2. order) :-0.8842079E+05  (-0.2794227E+05)
 number of electron     564.0000000 magnetization 
 augmentation part      564.0000000 magnetization 

 Free energy of the ion-electron system (eV)
  ---------------------------------------------------
  alpha Z        PSCENC =      1482.04539224
  Ewald energy   TEWEN  =    -31234.76433193
  -Hartree energ DENC   =    -16927.33980439
  -exchange      EXHF   =         0.00000000
  -V(xc)+E(xc)   XCENC  =      -730.89077199
  PAW double counting   =     43745.08136476  -132352.96792733
  entropy T*S    EENTRO =        -0.03101560
  eigenvalues    EBANDS =       459.70019949
  atomic energy  EATOM  =     47138.37786884
  Solvation  Ediel_sol  =         0.00000000
  ---------------------------------------------------
  free energy    TOTEN  =    -88420.78902589 eV

  energy without entropy =   -88420.75801030  energy(sigma->0) =   -88420.77351810
  exchange ACFDT corr.  =         0.00000000  see jH, gK, PRB 81, 115126


--------------------------------------------------------------------------------------------------------




--------------------------------------- Iteration      1(   2)  ---------------------------------------


     EDDAV:  cpu time    2.0101: real time    2.0906
       DOS:  cpu time    0.0009: real time    0.0009
    --------------------------------------------
      LOOP:  cpu time    2.0109: real time    2.0915

 eigenvalue-minimisations  :   788
 total energy-change (2. order) :-0.4397617E+04  (-0.4268254E+04)
 number of electron     564.0000000 magnetization 
 augmentation part      564.0000000 magnetization 

 Free energy of the ion-electron system (eV)
  ---------------------------------------------------
  alpha Z        PSCENC =      1482.04539224
  Ewald energy   TEWEN  =    -31234.76433193
  -Hartree energ DENC   =    -16927.33980439
  -exchange      EXHF   =         0.00000000
  -V(xc)+E(xc)   XCENC  =      -730.89077199
  PAW double counting   =     43745.08136476  -132352.96792733
  entropy T*S    EENTRO =        -0.02820948
  eigenvalues    EBANDS =     -3937.91975567
  atomic energy  EATOM  =     47138.37786884
  Solvation  Ediel_sol  =         0.00000000
  ---------------------------------------------------
  free energy    TOTEN  =    -92818.40617494 eV

  energy without entropy =   -92818.37796546  energy(sigma->0) =   -92818.39207020
  exchange ACFDT corr.  =         0.00000000  see jH, gK, PRB 81, 115126


--------------------------------------------------------------------------------------------------------




--------------------------------------- Iteration      1(   3)  ---------------------------------------


     EDDAV:  cpu time    2.6520: real time    2.8882
       DOS:  cpu time    0.0228: real time    0.0246
    --------------------------------------------
      LOOP:  cpu time    2.6748: real time    2.9129

 eigenvalue-minimisations  :   776
 total energy-change (2. order) :-0.3712504E+03  (-0.3659359E+03)
 number of electron     564.0000000 magnetization 
 augmentation part      564.0000000 magnetization 

 Free energy of the ion-electron system (eV)
  ---------------------------------------------------
  alpha Z        PSCENC =      1482.04539224
  Ewald energy   TEWEN  =    -31234.76433193
  -Hartree energ DENC   =    -16927.33980439
  -exchange      EXHF   =         0.00000000
  -V(xc)+E(xc)   XCENC  =      -730.89077199
  PAW double counting   =     43745.08136476  -132352.96792733
  entropy T*S    EENTRO =        -0.02820948
  eigenvalues    EBANDS =     -4309.17011438
  atomic energy  EATOM  =     47138.37786884
  Solvation  Ediel_sol  =         0.00000000
  ---------------------------------------------------
  free energy    TOTEN  =    -93189.65653365 eV

  energy without entropy =   -93189.62832417  energy(sigma->0) =   -93189.64242891
  exchange ACFDT corr.  =         0.00000000  see jH, gK, PRB 81, 115126


--------------------------------------------------------------------------------------------------------




--------------------------------------- Iteration      1(   4)  ---------------------------------------


     EDDAV:  cpu time    2.6454: real time    2.7405
       DOS:  cpu time    0.0168: real time    0.0170
    --------------------------------------------
      LOOP:  cpu time    2.6622: real time    2.7575

 eigenvalue-minimisations  :   912
 total energy-change (2. order) :-0.2100409E+02  (-0.2092880E+02)
 number of electron     564.0000000 magnetization 
 augmentation part      564.0000000 magnetization 

 Free energy of the ion-electron system (eV)
  ---------------------------------------------------
  alpha Z        PSCENC =      1482.04539224
  Ewald energy   TEWEN  =    -31234.76433193
  -Hartree energ DENC   =    -16927.33980439
  -exchange      EXHF   =         0.00000000
  -V(xc)+E(xc)   XCENC  =      -730.89077199
  PAW double counting   =     43745.08136476  -132352.96792733
  entropy T*S    EENTRO =        -0.02820948
  eigenvalues    EBANDS =     -4330.17420573
  atomic energy  EATOM  =     47138.37786884
  Solvation  Ediel_sol  =         0.00000000
  ---------------------------------------------------
  free energy    TOTEN  =    -93210.66062500 eV

  energy without entropy =   -93210.63241552  energy(sigma->0) =   -93210.64652026
  exchange ACFDT corr.  =         0.00000000  see jH, gK, PRB 81, 115126


--------------------------------------------------------------------------------------------------------




--------------------------------------- Iteration      1(   5)  ---------------------------------------


    POTLOK:  cpu time    0.2628: real time    0.2651
    SETDIJ:  cpu time    0.9249: real time    0.9257
     EDDAV:  cpu time   17.9347: real time   18.0082
       DOS:  cpu time    0.0009: real time    0.0009
    CHARGE:  cpu time    0.0747: real time    0.0763
    MIXING:  cpu time    0.0015: real time    0.0018
    --------------------------------------------
      LOOP:  cpu time   19.1995: real time   19.2779

 eigenvalue-minimisations  :   680
 total energy-change (2. order) : 0.9303296E+05  (-0.7804098E+02)
 number of electron     564.3999995 magnetization 
 augmentation part      140.9595533 magnetization 

 Free energy of the ion-electron system (eV)
  ---------------------------------------------------
  alpha Z        PSCENC =      1482.04539224
  Ewald energy   TEWEN  =    -31234.76433193
  -Hartree energ DENC   =    -16927.33980439
  -exchange      EXHF   =      1590.27266173
  -V(xc)+E(xc)   XCENC  =      -597.58819428
  PAW double counting   =     43590.36926174   -41748.31759969
  entropy T*S    EENTRO =        -0.02820948
  eigenvalues    EBANDS =     -3470.73172980
  atomic energy  EATOM  =     47138.37786884
  Solvation  Ediel_sol  =         0.00000000
  ---------------------------------------------------
  free energy    TOTEN  =      -177.70468502 eV

  energy without entropy =     -177.67647554  energy(sigma->0) =     -177.69058028
  exchange ACFDT corr.  =         0.00000000  see jH, gK, PRB 81, 115126


--------------------------------------------------------------------------------------------------------




--------------------------------------- Iteration      1(   6)  ---------------------------------------


    POTLOK:  cpu time    0.2448: real time    0.2472
    SETDIJ:  cpu time    0.9148: real time    0.9151
     EDDAV:  cpu time   18.2848: real time   18.5341
       DOS:  cpu time    0.0009: real time    0.0009
    CHARGE:  cpu time    0.0728: real time    0.0728
    MIXING:  cpu time    0.0012: real time    0.0012
    --------------------------------------------
      LOOP:  cpu time   19.5192: real time   19.7713

 eigenvalue-minimisations  :   756
 total energy-change (2. order) : 0.2355946E+00  (-0.6480714E+01)
 number of electron     564.6399992 magnetization 
 augmentation part      141.0873936 magnetization 

 Free energy of the ion-electron system (eV)
  ---------------------------------------------------
  alpha Z        PSCENC =      1482.04539224
  Ewald energy   TEWEN  =    -31234.76433193
  -Hartree energ DENC   =    -16938.05904899
  -exchange      EXHF   =      1531.17405978
  -V(xc)+E(xc)   XCENC  =      -594.35043448
  PAW double counting   =     75840.60129450   -73979.18843643
  entropy T*S    EENTRO =        -0.02820948
  eigenvalues    EBANDS =     -3423.27724450
  atomic energy  EATOM  =     47138.37786884
  Solvation  Ediel_sol  =         0.00000000
  ---------------------------------------------------
  free energy    TOTEN  =      -177.46909044 eV

  energy without entropy =     -177.44088096  energy(sigma->0) =     -177.45498570
  exchange ACFDT corr.  =         0.00000000  see jH, gK, PRB 81, 115126


--------------------------------------------------------------------------------------------------------




--------------------------------------- Iteration      1(   7)  ---------------------------------------


    POTLOK:  cpu time    0.2460: real time    0.2480
    SETDIJ:  cpu time    0.9150: real time    0.9217
     EDDAV:  cpu time   18.4096: real time   18.5418
       DOS:  cpu time    0.0012: real time    0.0012
    CHARGE:  cpu time    0.0950: real time    0.0951
    MIXING:  cpu time    0.0012: real time    0.0012
    --------------------------------------------
      LOOP:  cpu time   19.6679: real time   19.8088

 eigenvalue-minimisations  :   748
 total energy-change (2. order) : 0.8530209E+00  (-0.1581080E+01)
 number of electron     564.7839990 magnetization 
 augmentation part      142.6847599 magnetization 

 Free energy of the ion-electron system (eV)
  ---------------------------------------------------
  alpha Z        PSCENC =      1482.04539224
  Ewald energy   TEWEN  =    -31234.76433193
  -Hartree energ DENC   =    -16840.08171976
  -exchange      EXHF   =      1510.02204866
  -V(xc)+E(xc)   XCENC  =      -594.02767148
  PAW double counting   =    105711.99718110  -103838.88469416
  entropy T*S    EENTRO =        -0.02821434
  eigenvalues    EBANDS =     -3511.27192870
  atomic energy  EATOM  =     47138.37786884
  Solvation  Ediel_sol  =         0.00000000
  ---------------------------------------------------
  free energy    TOTEN  =      -176.61606953 eV

  energy without entropy =     -176.58785519  energy(sigma->0) =     -176.60196236
  exchange ACFDT corr.  =         0.00000000  see jH, gK, PRB 81, 115126


--------------------------------------------------------------------------------------------------------




--------------------------------------- Iteration      1(   8)  ---------------------------------------


    POTLOK:  cpu time    0.2733: real time    0.2755
    SETDIJ:  cpu time    0.9181: real time    0.9184
     EDDAV:  cpu time   17.9336: real time   18.0910
       DOS:  cpu time    0.0009: real time    0.0009
    CHARGE:  cpu time    0.0742: real time    0.0742
    MIXING:  cpu time    0.0012: real time    0.0012
    --------------------------------------------
      LOOP:  cpu time   19.2014: real time   19.3612

 eigenvalue-minimisations  :   756
 total energy-change (2. order) :-0.4775244E+00  (-0.3948436E+00)
 number of electron     564.8703989 magnetization 
 augmentation part      143.3033746 magnetization 

 Free energy of the ion-electron system (eV)
  ---------------------------------------------------
  alpha Z        PSCENC =      1482.04539224
  Ewald energy   TEWEN  =    -31234.76433193
  -Hartree energ DENC   =    -16795.02183860
  -exchange      EXHF   =      1504.40674251
  -V(xc)+E(xc)   XCENC  =      -593.62265135
  PAW double counting   =    126247.23055935  -124371.62831756
  entropy T*S    EENTRO =        -0.02822060
  eigenvalues    EBANDS =     -3554.08879682
  atomic energy  EATOM  =     47138.37786884
  Solvation  Ediel_sol  =         0.00000000
  ---------------------------------------------------
  free energy    TOTEN  =      -177.09359392 eV

  energy without entropy =     -177.06537332  energy(sigma->0) =     -177.07948362
  exchange ACFDT corr.  =         0.00000000  see jH, gK, PRB 81, 115126


--------------------------------------------------------------------------------------------------------




--------------------------------------- Iteration      1(   9)  ---------------------------------------


    POTLOK:  cpu time    0.2467: real time    0.2483
    SETDIJ:  cpu time    0.9194: real time    0.9201
     EDDAV:  cpu time   18.8352: real time   19.0387
       DOS:  cpu time    0.0009: real time    0.0009
    CHARGE:  cpu time    0.0738: real time    0.0739
    MIXING:  cpu time    0.0012: real time    0.0012
    --------------------------------------------
      LOOP:  cpu time   20.0772: real time   20.2830

 eigenvalue-minimisations  :   724
 total energy-change (2. order) : 0.1118794E+00  (-0.5645379E-01)
 number of electron     564.9222388 magnetization 
 augmentation part      143.3799062 magnetization 

 Free energy of the ion-electron system (eV)
  ---------------------------------------------------
  alpha Z        PSCENC =      1482.04539224
  Ewald energy   TEWEN  =    -31234.76433193
  -Hartree energ DENC   =    -16780.75405225
  -exchange      EXHF   =      1503.03369489
  -V(xc)+E(xc)   XCENC  =      -593.19954806
  PAW double counting   =    140174.68172994  -138299.50298963
  entropy T*S    EENTRO =        -0.02820948
  eigenvalues    EBANDS =     -3566.87126903
  atomic energy  EATOM  =     47138.37786884
  Solvation  Ediel_sol  =         0.00000000
  ---------------------------------------------------
  free energy    TOTEN  =      -176.98171447 eV

  energy without entropy =     -176.95350499  energy(sigma->0) =     -176.96760973
  exchange ACFDT corr.  =         0.00000000  see jH, gK, PRB 81, 115126


--------------------------------------------------------------------------------------------------------




--------------------------------------- Iteration      1(  10)  ---------------------------------------


    POTLOK:  cpu time    0.2447: real time    0.2474
    SETDIJ:  cpu time    0.9149: real time    0.9154
     EDDAV:  cpu time   18.5023: real time   18.7935
       DOS:  cpu time    0.0009: real time    0.0009
    CHARGE:  cpu time    0.0738: real time    0.0738
    MIXING:  cpu time    0.0014: real time    0.0014
    --------------------------------------------
      LOOP:  cpu time   19.7379: real time   20.0323

 eigenvalue-minimisations  :   724
 total energy-change (2. order) : 0.2276861E+00  (-0.4691833E-01)
 number of electron     564.9533428 magnetization 
 augmentation part      143.3193822 magnetization 

 Free energy of the ion-electron system (eV)
  ---------------------------------------------------
  alpha Z        PSCENC =      1482.04539224
  Ewald energy   TEWEN  =    -31234.76433193
  -Hartree energ DENC   =    -16773.54863681
  -exchange      EXHF   =      1503.08123053
  -V(xc)+E(xc)   XCENC  =      -592.90113891
  PAW double counting   =    148701.79546611  -146827.07921672
  entropy T*S    EENTRO =        -0.02821568
  eigenvalues    EBANDS =     -3573.73244603
  atomic energy  EATOM  =     47138.37786884
  Solvation  Ediel_sol  =         0.00000000
  ---------------------------------------------------
  free energy    TOTEN  =      -176.75402836 eV

  energy without entropy =     -176.72581268  energy(sigma->0) =     -176.73992052
  exchange ACFDT corr.  =         0.00000000  see jH, gK, PRB 81, 115126


--------------------------------------------------------------------------------------------------------




--------------------------------------- Iteration      1(  11)  ---------------------------------------


    POTLOK:  cpu time    0.2464: real time    0.2487
    SETDIJ:  cpu time    0.9842: real time    0.9844
     EDDAV:  cpu time   18.9884: real time   19.2680
       DOS:  cpu time    0.0009: real time    0.0009
    CHARGE:  cpu time    0.0748: real time    0.0748
    MIXING:  cpu time    0.0012: real time    0.0012
    --------------------------------------------
      LOOP:  cpu time   20.2959: real time   20.5781

 eigenvalue-minimisations  :   724
 total energy-change (2. order) :-0.1065686E+00  (-0.9066812E-01)
 number of electron     564.9720052 magnetization 
 augmentation part      143.2538728 magnetization 

 Free energy of the ion-electron system (eV)
  ---------------------------------------------------
  alpha Z        PSCENC =      1482.04539224
  Ewald energy   TEWEN  =    -31234.76433193
  -Hartree energ DENC   =    -16768.92941787
  -exchange      EXHF   =      1503.45913880
  -V(xc)+E(xc)   XCENC  =      -592.70520259
  PAW double counting   =    153733.77798551  -151859.20568281
  entropy T*S    EENTRO =        -0.02820948
  eigenvalues    EBANDS =     -3578.88813766
  atomic energy  EATOM  =     47138.37786884
  Solvation  Ediel_sol  =         0.00000000
  ---------------------------------------------------
  free energy    TOTEN  =      -176.86059695 eV

  energy without entropy =     -176.83238747  energy(sigma->0) =     -176.84649221
  exchange ACFDT corr.  =         0.00000000  see jH, gK, PRB 81, 115126


--------------------------------------------------------------------------------------------------------




--------------------------------------- Iteration      1(  12)  ---------------------------------------


    POTLOK:  cpu time    0.2453: real time    0.2482
    SETDIJ:  cpu time    0.9095: real time    0.9211
     EDDAV:  cpu time   18.2962: real time   18.5024
       DOS:  cpu time    0.0009: real time    0.0009
    CHARGE:  cpu time    0.0729: real time    0.0729
    MIXING:  cpu time    0.0012: real time    0.0012
    --------------------------------------------
      LOOP:  cpu time   19.5259: real time   19.7466

 eigenvalue-minimisations  :   700
 total energy-change (2. order) : 0.3575767E-01  (-0.1912364E-01)
 number of electron     564.9832026 magnetization 
 augmentation part      143.2419791 magnetization 

 Free energy of the ion-electron system (eV)
  ---------------------------------------------------
  alpha Z        PSCENC =      1482.04539224
  Ewald energy   TEWEN  =    -31234.76433193
  -Hartree energ DENC   =    -16765.92220771
  -exchange      EXHF   =      1503.94477495
  -V(xc)+E(xc)   XCENC  =      -592.57777256
  PAW double counting   =    156665.76024937  -154791.15590548
  entropy T*S    EENTRO =        -0.02820948
  eigenvalues    EBANDS =     -3582.50469753
  atomic energy  EATOM  =     47138.37786884
  Solvation  Ediel_sol  =         0.00000000
  ---------------------------------------------------
  free energy    TOTEN  =      -176.82483928 eV

  energy without entropy =     -176.79662980  energy(sigma->0) =     -176.81073454
  exchange ACFDT corr.  =         0.00000000  see jH, gK, PRB 81, 115126


--------------------------------------------------------------------------------------------------------




--------------------------------------- Iteration      1(  13)  ---------------------------------------


    POTLOK:  cpu time    0.2446: real time    0.2474
    SETDIJ:  cpu time    0.9159: real time    0.9163
     EDDAV:  cpu time   17.9340: real time   18.0167
       DOS:  cpu time    0.0046: real time    0.0046
    CHARGE:  cpu time    0.0789: real time    0.0789
    MIXING:  cpu time    0.0012: real time    0.0012
    --------------------------------------------
      LOOP:  cpu time   19.1792: real time   19.2650

 eigenvalue-minimisations  :   732
 total energy-change (2. order) : 0.7233352E-01  (-0.2039565E-01)
 number of electron     564.9899211 magnetization 
 augmentation part      143.2300783 magnetization 

 Free energy of the ion-electron system (eV)
  ---------------------------------------------------
  alpha Z        PSCENC =      1482.04539224
  Ewald energy   TEWEN  =    -31234.76433193
  -Hartree energ DENC   =    -16763.85481870
  -exchange      EXHF   =      1504.11069573
  -V(xc)+E(xc)   XCENC  =      -592.49399608
  PAW double counting   =    158406.99690524  -156532.33391633
  entropy T*S    EENTRO =        -0.02821342
  eigenvalues    EBANDS =     -3584.80809135
  atomic energy  EATOM  =     47138.37786884
  Solvation  Ediel_sol  =         0.00000000
  ---------------------------------------------------
  free energy    TOTEN  =      -176.75250576 eV

  energy without entropy =     -176.72429234  energy(sigma->0) =     -176.73839905
  exchange ACFDT corr.  =         0.00000000  see jH, gK, PRB 81, 115126


--------------------------------------------------------------------------------------------------------




--------------------------------------- Iteration      1(  14)  ---------------------------------------


    POTLOK:  cpu time    0.2622: real time    0.2643
    SETDIJ:  cpu time    0.9203: real time    0.9206
     EDDAV:  cpu time   18.7991: real time   19.1385
       DOS:  cpu time    0.0009: real time    0.0009
    CHARGE:  cpu time    0.0731: real time    0.0731
    MIXING:  cpu time    0.0012: real time    0.0012
    --------------------------------------------
      LOOP:  cpu time   20.0567: real time   20.3985

 eigenvalue-minimisations  :   708
 total energy-change (2. order) :-0.6863157E-01  (-0.5100285E-01)
 number of electron     564.9939521 magnetization 
 augmentation part      143.2185261 magnetization 

 Free energy of the ion-electron system (eV)
  ---------------------------------------------------
  alpha Z        PSCENC =      1482.04539224
  Ewald energy   TEWEN  =    -31234.76433193
  -Hartree energ DENC   =    -16762.88856963
  -exchange      EXHF   =      1504.08985757
  -V(xc)+E(xc)   XCENC  =      -592.44480685
  PAW double counting   =    159445.34770250  -157570.68781592
  entropy T*S    EENTRO =        -0.02821180
  eigenvalues    EBANDS =     -3585.86822234
  atomic energy  EATOM  =     47138.37786884
  Solvation  Ediel_sol  =         0.00000000
  ---------------------------------------------------
  free energy    TOTEN  =      -176.82113732 eV

  energy without entropy =     -176.79292552  energy(sigma->0) =     -176.80703142
  exchange ACFDT corr.  =         0.00000000  see jH, gK, PRB 81, 115126


--------------------------------------------------------------------------------------------------------




--------------------------------------- Iteration      1(  15)  ---------------------------------------


    POTLOK:  cpu time    0.2502: real time    0.2530
    SETDIJ:  cpu time    0.9186: real time    0.9194
     EDDAV:  cpu time   17.9510: real time   18.1620
       DOS:  cpu time    0.0009: real time    0.0009
    CHARGE:  cpu time    0.0740: real time    0.0740
    MIXING:  cpu time    0.0013: real time    0.0013
    --------------------------------------------
      LOOP:  cpu time   19.1960: real time   19.4106

 eigenvalue-minimisations  :   700
 total energy-change (2. order) : 0.1514412E-01  (-0.1893744E-01)
 number of electron     564.9963708 magnetization 
 augmentation part      143.2137453 magnetization 

 Free energy of the ion-electron system (eV)
  ---------------------------------------------------
  alpha Z        PSCENC =      1482.04539224
  Ewald energy   TEWEN  =    -31234.76433193
  -Hartree energ DENC   =    -16762.94187530
  -exchange      EXHF   =      1503.98353867
  -V(xc)+E(xc)   XCENC  =      -592.42463333
  PAW double counting   =    160106.24914570  -158231.66166399
  entropy T*S    EENTRO =        -0.02820948
  eigenvalues    EBANDS =     -3585.64122462
  atomic energy  EATOM  =     47138.37786884
  Solvation  Ediel_sol  =         0.00000000
  ---------------------------------------------------
  free energy    TOTEN  =      -176.80599320 eV

  energy without entropy =     -176.77778373  energy(sigma->0) =     -176.79188847
  exchange ACFDT corr.  =         0.00000000  see jH, gK, PRB 81, 115126


--------------------------------------------------------------------------------------------------------




--------------------------------------- Iteration      1(  16)  ---------------------------------------


    POTLOK:  cpu time    0.2544: real time    0.2569
    SETDIJ:  cpu time    0.9188: real time    0.9191
     EDDAV:  cpu time   18.7478: real time   19.0261
       DOS:  cpu time    0.0072: real time    0.0072
    CHARGE:  cpu time    0.0757: real time    0.0757
    MIXING:  cpu time    0.0016: real time    0.0015
    --------------------------------------------
      LOOP:  cpu time   20.0054: real time   20.2865

 eigenvalue-minimisations  :   724
 total energy-change (2. order) : 0.7426177E-01  (-0.3450630E-01)
 number of electron     564.9978220 magnetization 
 augmentation part      143.2080723 magnetization 

 Free energy of the ion-electron system (eV)
  ---------------------------------------------------
  alpha Z        PSCENC =      1482.04539224
  Ewald energy   TEWEN  =    -31234.76433193
  -Hartree energ DENC   =    -16763.00402162
  -exchange      EXHF   =      1503.94674829
  -V(xc)+E(xc)   XCENC  =      -592.41767571
  PAW double counting   =    160510.73492518  -158636.20808759
  entropy T*S    EENTRO =        -0.02822297
  eigenvalues    EBANDS =     -3585.41432616
  atomic energy  EATOM  =     47138.37786884
  Solvation  Ediel_sol  =         0.00000000
  ---------------------------------------------------
  free energy    TOTEN  =      -176.73173143 eV

  energy without entropy =     -176.70350846  energy(sigma->0) =     -176.71761995
  exchange ACFDT corr.  =         0.00000000  see jH, gK, PRB 81, 115126


--------------------------------------------------------------------------------------------------------




--------------------------------------- Iteration      1(  17)  ---------------------------------------


    POTLOK:  cpu time    0.2694: real time    0.2761
    SETDIJ:  cpu time    0.9184: real time    0.9232
     EDDAV:  cpu time   17.7509: real time   18.0990
       DOS:  cpu time    0.0009: real time    0.0009
    CHARGE:  cpu time    0.0749: real time    0.0749
    MIXING:  cpu time    0.0012: real time    0.0012
    --------------------------------------------
      LOOP:  cpu time   19.0156: real time   19.3754

 eigenvalue-minimisations  :   732
 total energy-change (2. order) :-0.1263828E+00  (-0.6556574E-01)
 number of electron     564.9986927 magnetization 
 augmentation part      143.2072609 magnetization 

 Free energy of the ion-electron system (eV)
  ---------------------------------------------------
  alpha Z        PSCENC =      1482.04539224
  Ewald energy   TEWEN  =    -31234.76433193
  -Hartree energ DENC   =    -16762.86300591
  -exchange      EXHF   =      1503.92069037
  -V(xc)+E(xc)   XCENC  =      -592.41651749
  PAW double counting   =    160739.35213462  -158864.84245656
  entropy T*S    EENTRO =        -0.02820948
  eigenvalues    EBANDS =     -3585.63967896
  atomic energy  EATOM  =     47138.37786884
  Solvation  Ediel_sol  =         0.00000000
  ---------------------------------------------------
  free energy    TOTEN  =      -176.85811424 eV

  energy without entropy =     -176.82990476  energy(sigma->0) =     -176.84400950
  exchange ACFDT corr.  =         0.00000000  see jH, gK, PRB 81, 115126


--------------------------------------------------------------------------------------------------------




--------------------------------------- Iteration      1(  18)  ---------------------------------------


    POTLOK:  cpu time    0.2449: real time    0.2474
    SETDIJ:  cpu time    0.9148: real time    0.9155
     EDDAV:  cpu time   18.9804: real time   19.2952
       DOS:  cpu time    0.0021: real time    0.0021
    CHARGE:  cpu time    0.0773: real time    0.0773
    MIXING:  cpu time    0.0012: real time    0.0012
    --------------------------------------------
      LOOP:  cpu time   20.2208: real time   20.5387

 eigenvalue-minimisations  :   756
 total energy-change (2. order) : 0.5898375E-01  (-0.1246482E-01)
 number of electron     564.9992151 magnetization 
 augmentation part      143.2104349 magnetization 

 Free energy of the ion-electron system (eV)
  ---------------------------------------------------
  alpha Z        PSCENC =      1482.04539224
  Ewald energy   TEWEN  =    -31234.76433193
  -Hartree energ DENC   =    -16762.45062742
  -exchange      EXHF   =      1504.05861434
  -V(xc)+E(xc)   XCENC  =      -592.41242538
  PAW double counting   =    160845.67281475  -158971.13574608
  entropy T*S    EENTRO =        -0.02820948
  eigenvalues    EBANDS =     -3586.16248037
  atomic energy  EATOM  =     47138.37786884
  Solvation  Ediel_sol  =         0.00000000
  ---------------------------------------------------
  free energy    TOTEN  =      -176.79913049 eV

  energy without entropy =     -176.77092101  energy(sigma->0) =     -176.78502575
  exchange ACFDT corr.  =         0.00000000  see jH, gK, PRB 81, 115126


--------------------------------------------------------------------------------------------------------




--------------------------------------- Iteration      1(  19)  ---------------------------------------


    POTLOK:  cpu time    0.2614: real time    0.2755
    SETDIJ:  cpu time    0.9269: real time    0.9390
     EDDAV:  cpu time   18.2686: real time   18.5076
       DOS:  cpu time    0.0009: real time    0.0009
    CHARGE:  cpu time    0.0742: real time    0.0742
    MIXING:  cpu time    0.0018: real time    0.0018
    --------------------------------------------
      LOOP:  cpu time   19.5338: real time   19.7990

 eigenvalue-minimisations  :   708
 total energy-change (2. order) : 0.4220636E-01  (-0.1999554E-01)
 number of electron     564.9995286 magnetization 
 augmentation part      143.2140731 magnetization 

 Free energy of the ion-electron system (eV)
  ---------------------------------------------------
  alpha Z        PSCENC =      1482.04539224
  Ewald energy   TEWEN  =    -31234.76433193
  -Hartree energ DENC   =    -16761.95181387
  -exchange      EXHF   =      1504.09913793
  -V(xc)+E(xc)   XCENC  =      -592.40588296
  PAW double counting   =    160900.30383812  -159025.73300215
  entropy T*S    EENTRO =        -0.02824744
  eigenvalues    EBANDS =     -3586.69988290
  atomic energy  EATOM  =     47138.37786884
  Solvation  Ediel_sol  =         0.00000000
  ---------------------------------------------------
  free energy    TOTEN  =      -176.75692413 eV

  energy without entropy =     -176.72867668  energy(sigma->0) =     -176.74280041
  exchange ACFDT corr.  =         0.00000000  see jH, gK, PRB 81, 115126


--------------------------------------------------------------------------------------------------------




--------------------------------------- Iteration      1(  20)  ---------------------------------------


    POTLOK:  cpu time    0.2506: real time    0.2529
    SETDIJ:  cpu time    0.9189: real time    0.9191
     EDDAV:  cpu time   18.7041: real time   18.8125
       DOS:  cpu time    0.0041: real time    0.0042
    CHARGE:  cpu time    0.0750: real time    0.0753
    MIXING:  cpu time    0.0077: real time    0.0109
    --------------------------------------------
      LOOP:  cpu time   19.9605: real time   20.0749

 eigenvalue-minimisations  :   724
 total energy-change (2. order) :-0.7917621E-01  (-0.4844942E-01)
 number of electron     564.9997166 magnetization 
 augmentation part      143.2108041 magnetization 

 Free energy of the ion-electron system (eV)
  ---------------------------------------------------
  alpha Z        PSCENC =      1482.04539224
  Ewald energy   TEWEN  =    -31234.76433193
  -Hartree energ DENC   =    -16761.89295070
  -exchange      EXHF   =      1504.01924164
  -V(xc)+E(xc)   XCENC  =      -592.40186646
  PAW double counting   =    160956.62271966  -159082.06495512
  entropy T*S    EENTRO =        -0.02820960
  eigenvalues    EBANDS =     -3586.74900891
  atomic energy  EATOM  =     47138.37786884
  Solvation  Ediel_sol  =         0.00000000
  ---------------------------------------------------
  free energy    TOTEN  =      -176.83610034 eV

  energy without entropy =     -176.80789073  energy(sigma->0) =     -176.82199553
  exchange ACFDT corr.  =         0.00000000  see jH, gK, PRB 81, 115126


--------------------------------------------------------------------------------------------------------




--------------------------------------- Iteration      1(  21)  ---------------------------------------


    POTLOK:  cpu time    0.2518: real time    0.2592
    SETDIJ:  cpu time    0.9138: real time    0.9263
     EDDAV:  cpu time   19.0394: real time   19.3465
       DOS:  cpu time    0.0010: real time    0.0010
    CHARGE:  cpu time    0.0728: real time    0.0728
    MIXING:  cpu time    0.0013: real time    0.0013
    --------------------------------------------
      LOOP:  cpu time   20.2800: real time   20.6070

 eigenvalue-minimisations  :   740
 total energy-change (2. order) : 0.5095209E-01  (-0.1375431E-01)
 number of electron     564.9998295 magnetization 
 augmentation part      143.2065316 magnetization 

 Free energy of the ion-electron system (eV)
  ---------------------------------------------------
  alpha Z        PSCENC =      1482.04539224
  Ewald energy   TEWEN  =    -31234.76433193
  -Hartree energ DENC   =    -16762.28839621
  -exchange      EXHF   =      1503.94298499
  -V(xc)+E(xc)   XCENC  =      -592.40511224
  PAW double counting   =    161020.17500044  -159145.67138126
  entropy T*S    EENTRO =        -0.02820948
  eigenvalues    EBANDS =     -3586.16896365
  atomic energy  EATOM  =     47138.37786884
  Solvation  Ediel_sol  =         0.00000000
  ---------------------------------------------------
  free energy    TOTEN  =      -176.78514824 eV

  energy without entropy =     -176.75693876  energy(sigma->0) =     -176.77104350
  exchange ACFDT corr.  =         0.00000000  see jH, gK, PRB 81, 115126


--------------------------------------------------------------------------------------------------------




--------------------------------------- Iteration      1(  22)  ---------------------------------------


    POTLOK:  cpu time    0.2485: real time    0.2509
    SETDIJ:  cpu time    0.9179: real time    0.9182
     EDDAV:  cpu time   17.8854: real time   18.0001
       DOS:  cpu time    0.0009: real time    0.0009
    CHARGE:  cpu time    0.0726: real time    0.0728
    MIXING:  cpu time    0.0015: real time    0.0015
    --------------------------------------------
      LOOP:  cpu time   19.1268: real time   19.2444

 eigenvalue-minimisations  :   708
 total energy-change (2. order) : 0.4073403E-01  (-0.4243097E-01)
 number of electron     564.9998972 magnetization 
 augmentation part      143.2032120 magnetization 

 Free energy of the ion-electron system (eV)
  ---------------------------------------------------
  alpha Z        PSCENC =      1482.04539224
  Ewald energy   TEWEN  =    -31234.76433193
  -Hartree energ DENC   =    -16762.53298741
  -exchange      EXHF   =      1503.91982198
  -V(xc)+E(xc)   XCENC  =      -592.41039037
  PAW double counting   =    161062.24837940  -159187.78012137
  entropy T*S    EENTRO =        -0.02822631
  eigenvalues    EBANDS =     -3585.81981927
  atomic energy  EATOM  =     47138.37786884
  Solvation  Ediel_sol  =         0.00000000
  ---------------------------------------------------
  free energy    TOTEN  =      -176.74441421 eV

  energy without entropy =     -176.71618790  energy(sigma->0) =     -176.73030105
  exchange ACFDT corr.  =         0.00000000  see jH, gK, PRB 81, 115126


--------------------------------------------------------------------------------------------------------




--------------------------------------- Iteration      1(  23)  ---------------------------------------


    POTLOK:  cpu time    0.2468: real time    0.2487
    SETDIJ:  cpu time    0.9205: real time    0.9378
     EDDAV:  cpu time   17.8077: real time   18.1870
       DOS:  cpu time    0.0009: real time    0.0009
    CHARGE:  cpu time    0.0726: real time    0.0726
    MIXING:  cpu time    0.0013: real time    0.0013
    --------------------------------------------
      LOOP:  cpu time   19.0499: real time   19.4483

 eigenvalue-minimisations  :   716
 total energy-change (2. order) :-0.1185155E+00  (-0.5335174E-01)
 number of electron     564.9999378 magnetization 
 augmentation part      143.2049365 magnetization 

 Free energy of the ion-electron system (eV)
  ---------------------------------------------------
  alpha Z        PSCENC =      1482.04539224
  Ewald energy   TEWEN  =    -31234.76433193
  -Hartree energ DENC   =    -16762.50826740
  -exchange      EXHF   =      1503.93230859
  -V(xc)+E(xc)   XCENC  =      -592.41404310
  PAW double counting   =    161071.66257503  -159197.18637116
  entropy T*S    EENTRO =        -0.02820948
  eigenvalues    EBANDS =     -3585.97985139
  atomic energy  EATOM  =     47138.37786884
  Solvation  Ediel_sol  =         0.00000000
  ---------------------------------------------------
  free energy    TOTEN  =      -176.86292975 eV

  energy without entropy =     -176.83472027  energy(sigma->0) =     -176.84882501
  exchange ACFDT corr.  =         0.00000000  see jH, gK, PRB 81, 115126


--------------------------------------------------------------------------------------------------------




--------------------------------------- Iteration      1(  24)  ---------------------------------------


    POTLOK:  cpu time    0.2443: real time    0.2468
    SETDIJ:  cpu time    0.9142: real time    0.9145
     EDDAV:  cpu time   18.8757: real time   19.0464
       DOS:  cpu time    0.0031: real time    0.0031
    CHARGE:  cpu time    0.0744: real time    0.0744
    MIXING:  cpu time    0.0017: real time    0.0017
[...]
     0.000000000  0.000000000 13.086768000     0.000000000  0.000000000  0.076413061

  length of vectors
    13.086768000 13.086768000 13.086768000     0.076413061  0.076413061  0.076413061


 FORCES acting on ions
    electron-ion (+dipol)            ewald-force                    non-local-force                 convergence-correction
 -----------------------------------------------------------------------------------------------
   -.184E+00 0.141E+00 -.157E+01   0.202E+00 -.143E+00 0.158E+01   -.412E-02 -.298E-01 -.540E-01   -.231E-02 0.388E-03 -.167E-02
   -.474E+00 -.145E+01 0.536E+00   0.476E+00 0.144E+01 -.557E+00   0.253E-01 -.241E-01 -.727E-02   -.781E-03 0.300E-03 0.857E-03
   -.729E+00 -.428E+00 -.138E+01   0.734E+00 0.439E+00 0.138E+01   0.392E-02 -.976E-02 -.621E-01   0.113E-02 0.201E-02 0.138E-02
   0.673E+00 -.145E+00 0.513E+00   -.676E+00 0.126E+00 -.503E+00   0.248E-01 -.276E-01 -.407E-01   0.188E-02 -.215E-03 -.126E-02
   0.502E+00 0.126E+01 -.217E+00   -.502E+00 -.120E+01 0.241E+00   0.102E-01 -.901E-01 -.550E-01   0.171E-02 -.142E-02 -.986E-03
   0.610E+00 -.569E+00 0.465E+00   -.603E+00 0.588E+00 -.479E+00   -.121E-01 -.359E-01 -.208E-01   0.282E-03 -.969E-03 -.224E-02
   0.298E+00 -.386E+00 -.102E+01   -.310E+00 0.436E+00 0.102E+01   0.334E-01 -.731E-01 -.509E-01   0.235E-02 -.536E-03 0.138E-02
   -.140E+02 0.277E+02 0.267E+02   0.130E+02 -.288E+02 -.278E+02   0.100E+01 0.106E+01 0.106E+01   -.199E-02 -.855E-03 0.249E-02
   0.125E+02 0.281E+02 -.266E+02   -.114E+02 -.292E+02 0.277E+02   -.998E+00 0.105E+01 -.102E+01   -.161E-02 0.811E-03 -.272E-02
   0.123E+02 -.285E+02 0.277E+02   -.113E+02 0.295E+02 -.288E+02   -.964E+00 -.998E+00 0.104E+01   -.627E-03 -.633E-03 0.187E-02
   -.129E+02 -.288E+02 -.277E+02   0.119E+02 0.299E+02 0.288E+02   0.942E+00 -.101E+01 -.103E+01   -.154E-02 -.328E-03 -.207E-02
   0.652E+01 0.703E+01 0.648E+01   -.659E+01 -.716E+01 -.662E+01   0.609E-01 0.113E+00 0.125E+00   0.147E-02 0.229E-03 0.807E-03
   -.571E+01 0.729E+01 -.594E+01   0.576E+01 -.744E+01 0.611E+01   -.479E-01 0.128E+00 -.162E+00   -.116E-02 -.650E-03 -.432E-03
   -.494E+01 -.643E+01 0.576E+01   0.502E+01 0.663E+01 -.594E+01   -.715E-01 -.184E+00 0.139E+00   0.142E-02 0.215E-03 0.793E-03
   0.572E+01 -.658E+01 -.578E+01   -.580E+01 0.676E+01 0.596E+01   0.598E-01 -.150E+00 -.193E+00   -.117E-02 0.215E-02 0.285E-02
   0.277E+02 -.991E+01 0.296E+02   -.287E+02 0.912E+01 -.306E+02   0.957E+00 0.750E+00 0.960E+00   0.182E-03 0.890E-04 -.770E-03
   0.273E+02 0.117E+02 -.288E+02   -.283E+02 -.108E+02 0.298E+02   0.103E+01 -.856E+00 -.102E+01   0.302E-02 0.276E-02 0.171E-03
   0.525E+01 0.572E+01 0.524E+01   -.544E+01 -.579E+01 -.541E+01   0.177E+00 0.619E-01 0.145E+00   -.543E-03 -.187E-02 -.256E-03
   0.521E+01 -.737E+01 -.552E+01   -.543E+01 0.742E+01 0.565E+01   0.217E+00 -.106E+00 -.129E+00   0.179E-02 0.652E-03 -.155E-02
   -.270E+02 0.127E+02 0.292E+02   0.280E+02 -.118E+02 -.303E+02   -.105E+01 -.875E+00 0.998E+00   0.197E-02 0.549E-03 0.708E-03
   -.287E+02 -.908E+01 -.293E+02   0.297E+02 0.833E+01 0.304E+02   -.977E+00 0.728E+00 -.971E+00   -.254E-03 -.159E-02 0.504E-03
   -.465E+01 -.693E+01 0.520E+01   0.485E+01 0.702E+01 -.535E+01   -.163E+00 -.110E+00 0.107E+00   0.132E-02 -.304E-02 -.442E-03
   -.566E+01 0.512E+01 -.533E+01   0.585E+01 -.517E+01 0.550E+01   -.131E+00 -.477E-02 -.174E+00   -.112E-03 -.510E-03 -.655E-03
   0.277E+02 0.303E+02 -.105E+02   -.288E+02 -.313E+02 0.969E+01   0.101E+01 0.102E+01 0.821E+00   0.760E-03 -.550E-03 -.341E-03
   0.549E+01 0.635E+01 0.599E+01   -.570E+01 -.648E+01 -.604E+01   0.195E+00 0.964E-01 0.155E-01   -.131E-02 0.190E-02 -.121E-02
   0.277E+02 -.305E+02 0.110E+02   -.287E+02 0.315E+02 -.102E+02   0.980E+00 -.940E+00 -.789E+00   -.159E-02 -.486E-02 0.146E-02
   0.516E+01 -.592E+01 -.759E+01   -.536E+01 0.609E+01 0.766E+01   0.193E+00 -.176E+00 -.111E+00   -.284E-02 0.813E-03 0.170E-02
   -.272E+02 0.299E+02 0.127E+02   0.283E+02 -.309E+02 -.118E+02   -.100E+01 0.997E+00 -.856E+00   -.158E-02 0.991E-03 0.192E-03
   -.552E+01 0.636E+01 -.719E+01   0.570E+01 -.649E+01 0.729E+01   -.145E+00 0.646E-01 -.908E-01   0.352E-03 0.114E-02 -.331E-02
   -.275E+02 -.294E+02 -.921E+01   0.286E+02 0.304E+02 0.839E+01   -.993E+00 -.951E+00 0.785E+00   -.124E-02 0.823E-03 -.110E-02
   -.489E+01 -.600E+01 0.504E+01   0.509E+01 0.619E+01 -.509E+01   -.147E+00 -.162E+00 -.528E-02   -.403E-03 0.100E-02 0.151E-03
   0.109E+01 -.226E+00 0.140E+02   -.118E+01 0.290E+00 -.145E+02   0.905E-01 -.565E-01 0.519E+00   -.965E-03 0.181E-02 0.412E-03
   0.663E+02 0.673E+02 -.663E+02   -.701E+02 -.714E+02 0.704E+02   0.347E+01 0.379E+01 -.374E+01   0.744E-03 -.483E-04 0.277E-03
   0.509E+01 -.195E+01 0.189E+01   -.524E+01 0.212E+01 -.210E+01   0.137E+00 -.158E+00 0.191E+00   -.160E-02 -.195E-03 0.113E-02
   0.104E+01 -.143E+02 0.125E+01   -.108E+01 0.148E+02 -.133E+01   0.344E-01 -.459E+00 0.821E-01   -.315E-03 -.257E-03 -.143E-03
   -.154E+01 0.574E+01 0.212E+01   0.171E+01 -.599E+01 -.235E+01   -.149E+00 0.227E+00 0.202E+00   0.981E-03 0.185E-02 0.242E-03
   -.145E+02 0.152E+01 -.167E+01   0.151E+02 -.155E+01 0.179E+01   -.525E+00 0.311E-01 -.113E+00   0.194E-03 -.401E-03 0.536E-03
   -.272E+01 -.359E+01 0.207E+01   0.282E+01 0.370E+01 -.218E+01   -.100E+00 -.973E-01 0.929E-01   0.870E-03 -.867E-04 0.616E-03
   -.273E+01 -.370E+01 -.501E+01   0.293E+01 0.396E+01 0.524E+01   -.186E+00 -.235E+00 -.209E+00   0.341E-03 -.404E-03 -.459E-03
   0.102E+01 0.152E+02 -.379E+00   -.110E+01 -.158E+02 0.454E+00   0.761E-01 0.565E+00 -.757E-01   -.516E-04 0.147E-03 0.764E-03
   0.640E+01 0.171E+01 -.708E+00   -.660E+01 -.186E+01 0.803E+00   0.190E+00 0.144E+00 -.842E-01   -.307E-03 -.298E-03 -.157E-02
   0.656E+02 -.668E+02 0.668E+02   -.692E+02 0.708E+02 -.707E+02   0.334E+01 -.369E+01 0.366E+01   -.815E-03 0.124E-02 0.147E-02
   0.133E+01 0.218E+00 -.149E+02   -.139E+01 -.234E+00 0.155E+02   0.531E-01 0.205E-01 -.514E+00   -.292E-03 -.193E-02 -.125E-02
   -.115E+01 0.214E+01 0.591E+01   0.130E+01 -.233E+01 -.622E+01   -.142E+00 0.183E+00 0.279E+00   0.137E-02 -.322E-03 0.943E-03
   -.175E+01 0.180E+01 -.278E+01   0.178E+01 -.187E+01 0.287E+01   -.363E-01 0.699E-01 -.874E-01   0.861E-03 0.577E-03 -.834E-03
   -.148E+02 -.181E+01 0.612E+00   0.154E+02 0.190E+01 -.619E+00   -.507E+00 -.842E-01 0.403E-02   0.189E-04 0.278E-03 -.952E-03
   -.273E+01 -.655E+01 -.359E+01   0.294E+01 0.686E+01 0.386E+01   -.198E+00 -.286E+00 -.258E+00   0.104E-02 -.661E-04 -.756E-03
   0.134E+02 0.234E+01 0.163E+01   -.139E+02 -.249E+01 -.171E+01   0.426E+00 0.138E+00 0.715E-01   0.442E-03 -.196E-03 0.112E-03
   0.217E+01 0.612E+01 -.257E+01   -.232E+01 -.642E+01 0.280E+01   0.150E+00 0.279E+00 -.205E+00   -.215E-03 0.980E-03 0.889E-03
   0.222E+01 -.351E+01 0.645E+01   -.239E+01 0.377E+01 -.682E+01   0.165E+00 -.241E+00 0.342E+00   -.267E-03 -.730E-03 0.210E-03
   0.292E+01 -.295E+01 -.263E+01   -.299E+01 0.302E+01 0.271E+01   0.722E-01 -.587E-01 -.788E-01   -.251E-03 -.728E-03 0.217E-03
   -.671E+02 0.680E+02 0.676E+02   0.709E+02 -.721E+02 -.718E+02   -.351E+01 0.380E+01 0.383E+01   -.498E-03 0.495E-03 0.156E-02
   -.266E+01 0.965E+00 -.150E+02   0.283E+01 -.963E+00 0.155E+02   -.153E+00 -.331E-02 -.528E+00   -.546E-03 0.635E-03 -.741E-03
   -.215E+01 -.143E+02 0.922E+00   0.226E+01 0.148E+02 -.940E+00   -.105E+00 -.443E+00 0.153E-01   -.895E-03 -.102E-02 0.976E-03
   -.578E+01 -.256E+01 -.210E+01   0.595E+01 0.276E+01 0.227E+01   -.158E+00 -.186E+00 -.157E+00   0.238E-03 -.552E-03 -.739E-03
   0.305E+01 0.231E+01 0.227E+01   -.313E+01 -.239E+01 -.239E+01   0.734E-01 0.750E-01 0.104E+00   -.691E-03 -.124E-02 0.326E-03
   0.329E+01 0.403E+01 -.613E+01   -.354E+01 -.441E+01 0.643E+01   0.230E+00 0.354E+00 -.285E+00   0.529E-03 0.114E-03 0.170E-03
   0.239E+01 -.605E+01 0.311E+01   -.261E+01 0.631E+01 -.344E+01   0.204E+00 -.246E+00 0.295E+00   0.471E-03 0.936E-03 0.769E-03
   0.150E+02 -.158E+01 -.917E+00   -.156E+02 0.165E+01 0.957E+00   0.516E+00 -.691E-01 -.308E-01   0.341E-02 0.981E-03 -.183E-02
   -.530E+01 0.176E+01 0.243E+00   0.541E+01 -.193E+01 -.341E+00   -.996E-01 0.161E+00 0.927E-01   -.149E-02 -.112E-02 -.498E-03
   -.114E+01 0.148E+02 0.512E+00   0.120E+01 -.153E+02 -.502E+00   -.631E-01 0.532E+00 -.636E-02   -.110E-02 0.490E-03 -.529E-03
   -.105E+01 -.455E+00 0.148E+02   0.107E+01 0.490E+00 -.155E+02   -.298E-01 -.278E-01 0.569E+00   -.683E-03 0.138E-03 0.838E-03
   -.657E+02 -.667E+02 -.660E+02   0.692E+02 0.706E+02 0.700E+02   -.326E+01 -.365E+01 -.369E+01   -.100E-02 0.251E-04 -.703E-03
 -----------------------------------------------------------------------------------------------
   0.351E-01 0.584E-01 -.195E+00   0.995E-13 0.568E-13 0.853E-13   0.215E+00 -.380E+00 -.366E+00   -.190E-02 -.101E-03 -.225E-02
 
 
 POSITION                                       TOTAL-FORCE (eV/Angst)
 -----------------------------------------------------------------------------------
      0.00835     13.06749      6.51878        -0.000244      0.000667     -0.000403
      0.01943      6.51892     -0.01856         0.000167     -0.000387     -0.000807
      0.00418      6.53843      6.51634         0.002705      0.000950      0.000849
      6.55897     13.06001     -0.02324        -0.000202      0.000217      0.000295
      6.54942     13.06337      6.51451         0.001448     -0.000016     -0.000469
      6.54452      6.52140     -0.03787        -0.001036     -0.000129     -0.001962
      6.55595      6.52695      6.51812         0.000039      0.000023     -0.000168
     12.98829      3.19738      3.19875        -0.000649     -0.000779     -0.000761
      0.10607      3.20061      9.86150        -0.000410     -0.000629      0.000003
      0.08759      9.86430      3.18696        -0.000203     -0.000024     -0.000205
     13.00799      9.86542      9.86775        -0.000075      0.000208     -0.000788
      6.54113      3.23979      3.22843        -0.000240      0.000167     -0.000997
      6.56753      3.22824      9.81674        -0.000600      0.000151     -0.000348
      6.55738      9.80945      3.22669         0.000033      0.001243     -0.000493
      6.54068      9.81882      9.80995        -0.003099      0.002199      0.001861
      3.19000     12.99939      3.18456         0.000070      0.000026     -0.000594
      3.20304      0.06355      9.85529        -0.000215      0.000083      0.000204
      3.27109      6.52426      3.22518         0.000782     -0.000374      0.000571
      3.27771      6.51736      9.80745         0.000235      0.000008     -0.000614
      9.89476      0.07455      3.18493        -0.000257     -0.001393      0.000015
      9.90771     13.00150      9.87199        -0.000767     -0.000697     -0.000243
      9.83107      6.53021      3.23659         0.000524     -0.000654     -0.000489
      9.84154      6.51930      9.81000         0.000044     -0.000370     -0.000239
      3.19586      3.17393     -0.07979        -0.000748     -0.000710     -0.000158
      3.27554      3.24062      6.51007        -0.000521     -0.000222     -0.000414
      3.19425      9.86742      0.04509        -0.001324     -0.002958      0.001348
      3.26823      9.81190      6.52622         0.000780      0.001095     -0.000779
      9.90327      3.20083      0.06387         0.000755      0.000479     -0.001068
      9.83083      3.23301      6.54645         0.001239      0.000130     -0.001564
      9.89472      9.85370     -0.07988         0.000361     -0.000143      0.000667
      9.83481      9.82445      6.51493         0.001637      0.000362     -0.000597
      1.63587      1.62330      4.86675         0.002434      0.005770      0.006623
      1.51899      1.49940     11.54243        -0.001783      0.001833      0.004294
      1.64746      8.16671      4.87677        -0.002029     -0.000175      0.002016
      1.64497      8.17053     11.42702         0.001772     -0.000274      0.004377
      8.18898      1.62234      4.88240         0.003052     -0.000943     -0.004966
      8.22234      1.61571     11.44853         0.000901      0.002995      0.000561
      8.18821      8.16945      4.88522        -0.001301      0.000489     -0.000210
      8.19110      8.17076     11.43356         0.001879     -0.002578      0.000199
      1.63799      4.86218      1.62480        -0.003935     -0.003760     -0.003167
      1.64788      4.89367      8.14933         0.001504      0.001381      0.002758
      1.51390     11.54606      1.49713        -0.000937     -0.000250      0.004738
      1.64073     11.43517      8.17618         0.000901      0.001031      0.001846
      8.18635      4.89054      1.60495        -0.001252     -0.002300     -0.003461
      8.18363      4.89118      8.16934        -0.001191      0.001913     -0.001047
      8.21443     11.43884      1.61645         0.003953     -0.003405     -0.001660
      8.19344     11.44666      8.17432        -0.002867      0.000304     -0.002882
      4.89389      1.60031      1.61450        -0.000559      0.002172     -0.000705
      4.91640      1.61463      8.16505         0.001815      0.001546      0.006263
      4.90969      8.17193      1.59407         0.001348     -0.002358     -0.000176
      4.91734      8.16410      8.16252         0.003512      0.002304     -0.001752
     11.57902      1.50980      1.50083        -0.001623      0.000140     -0.003721
     11.46779      1.61903      8.18571        -0.000241     -0.000333      0.001832
     11.46462      8.16975      1.61809        -0.004268      0.005576      0.001336
     11.45540      8.17465      8.16489         0.007101     -0.003349     -0.005792
      4.91903      4.89423      4.87700         0.000471      0.000086     -0.001834
      4.90572      4.85972     11.43994         0.001655      0.001362      0.001282
      4.90548     11.43731      4.86764         0.002622     -0.002429      0.000356
      4.88984     11.44253     11.43631        -0.003616     -0.003352      0.003271
     11.44388      4.89155      4.89774         0.003428     -0.001459      0.002978
     11.46504      4.87486     11.43533        -0.004228     -0.003129      0.000107
     11.45619     11.44297      4.86299        -0.008234      0.002195     -0.001474
     11.57735     11.54091     11.56345        -0.000512      0.000474     -0.003646
 -----------------------------------------------------------------------------------
    total drift:                                0.084415      0.017505     -0.062932


--------------------------------------------------------------------------------------------------------



  FREE ENERGIE OF THE ION-ELECTRON SYSTEM (eV)
  ---------------------------------------------------
  free  energy   TOTEN  =      -204.24141566 eV

  energy  without entropy=     -204.20971907  energy(sigma->0) =     -204.22556737
 
 d Force = 0.1044820E-04[ 0.229E-05, 0.186E-04]  d Energy = 0.9922005E-05 0.526E-06
 d Force = 0.2413326E-01[ 0.241E-01, 0.242E-01]  d Ewald  = 0.2413326E-01-0.131E-09


--------------------------------------------------------------------------------------------------------


    POTLOK:  cpu time    1.1887: real time    1.1914


--------------------------------------------------------------------------------------------------------


 Conjugate gradient step on ions:
 trial-energy change:   -0.000010  1 .order   -0.000010   -0.000019   -0.000002
  (g-gl).g = 0.137E-04      g.g   = 0.212E-04  gl.gl    = 0.237E-04
 g(Force)  = 0.212E-04   g(Stress)= 0.000E+00 ortho     = 0.193E-05
 gamma     =   0.57640
 trial     =   0.83555
 opt step  =   0.95262  (harmonic =   0.95262) maximal distance =0.00020789
 next E    =  -204.241416   (d E  =  -0.00001)


--------------------------------------------------------------------------------------------------------


  
 reached required accuracy - stopping structural energy minimisation
     LOOP+:  cpu time   96.6485: real time   98.4568
    4ORBIT:  cpu time    0.0000: real time    0.0000
 


 total charge     
 
# of ion       s       p       d       tot
------------------------------------------
    1        0.420   0.294   9.591  10.305
    2        0.420   0.295   9.591  10.306
    3        0.422   0.295   9.591  10.308
    4        0.420   0.295   9.591  10.306
    5        0.423   0.294   9.590  10.307
    6        0.423   0.296   9.590  10.309
    7        0.421   0.296   9.591  10.308
    8        0.425   0.293   9.590  10.308
    9        0.424   0.292   9.590  10.306
   10        0.424   0.293   9.590  10.307
   11        0.424   0.292   9.590  10.305
   12        0.422   0.295   9.591  10.307
   13        0.422   0.296   9.591  10.308
   14        0.422   0.295   9.591  10.307
   15        0.422   0.295   9.590  10.307
   16        0.425   0.292   9.590  10.306
   17        0.424   0.292   9.590  10.306
   18        0.422   0.296   9.591  10.308
   19        0.421   0.295   9.591  10.307
   20        0.425   0.292   9.590  10.307
   21        0.424   0.291   9.590  10.305
   22        0.422   0.296   9.591  10.309
   23        0.422   0.296   9.591  10.308
   24        0.424   0.292   9.590  10.306
   25        0.421   0.295   9.591  10.306
   26        0.425   0.292   9.590  10.306
   27        0.421   0.295   9.591  10.307
   28        0.425   0.293   9.590  10.308
   29        0.422   0.296   9.591  10.308
   30        0.424   0.293   9.590  10.307
   31        0.421   0.295   9.591  10.307
   32        1.290   2.300   0.017   3.607
   33        1.308   2.250   0.018   3.576
   34        1.290   2.302   0.017   3.609
   35        1.289   2.300   0.017   3.607
   36        1.291   2.299   0.017   3.607
   37        1.290   2.299   0.017   3.606
   38        1.290   2.302   0.017   3.610
   39        1.291   2.297   0.017   3.605
   40        1.290   2.301   0.017   3.607
   41        1.290   2.301   0.017   3.609
   42        1.308   2.247   0.018   3.574
   43        1.289   2.300   0.017   3.606
   44        1.291   2.299   0.017   3.607
   45        1.290   2.302   0.017   3.610
   46        1.290   2.300   0.017   3.607
   47        1.291   2.296   0.017   3.604
   48        1.290   2.299   0.017   3.606
   49        1.291   2.298   0.017   3.606
   50        1.291   2.298   0.017   3.606
   51        1.290   2.301   0.017   3.609
   52        1.309   2.251   0.019   3.578
   53        1.290   2.300   0.017   3.606
   54        1.289   2.301   0.017   3.607
   55        1.290   2.301   0.017   3.608
   56        1.290   2.302   0.017   3.610
   57        1.291   2.298   0.017   3.606
   58        1.291   2.297   0.017   3.605
   59        1.290   2.299   0.017   3.606
   60        1.290   2.303   0.017   3.610
   61        1.290   2.301   0.017   3.608
   62        1.289   2.301   0.017   3.607
   63        1.309   2.246   0.018   3.573
--------------------------------------------------
tot         54.457  82.510 297.852 434.818
 

 total amount of memory used by VASP MPI-rank0    77672. kBytes
=======================================================================

   base      :      30000. kBytes
   nonlr-proj:       3419. kBytes
   fftplans  :       6877. kBytes
   grid      :      11280. kBytes
   one-center:         46. kBytes
   HF        :        129. kBytes
   wavefun   :       2812. kBytes
   fock_wrk  :      23109. kBytes
 
  
  
 General timing and accounting informations for this job:
 ========================================================
  
                  Total CPU time used (sec):    16465.445
                            User time (sec):    16340.828
                          System time (sec):      124.618
                         Elapsed time (sec):    16885.770
  
                   Maximum memory used (kb):      299496.
                   Average memory used (kb):           0.
  
                          Minor page faults:      2064260
                          Major page faults:           26
                 Voluntary context switches:       113688
