 DBCSR| Multiplication driver                                                SMM
 DBCSR| Multiplication stack size                                           1000
 DBCSR| Multiplication stack buffers                                           0
 DBCSR| Multiplication size stacks                                             3


  **** **** ******  **  PROGRAM STARTED AT               2013-12-03 19:16:22.468
 ***** ** ***  *** **   PROGRAM STARTED ON                      spring.kcl.ac.uk
 **    ****   ******    PROGRAM STARTED BY                                  tong
 ***** **    ** ** **   PROGRAM PROCESS ID                                 24417
  **** **  *******  **  PROGRAM STARTED IN /home/tong/tutorials/geometry_optimis
                                           ation/example_1

 CP2K| version string:                    CP2K version 2.5 (Development Version)
 CP2K| source code revision number:                                  git:071de34
 CP2K| is freely available from                             http://www.cp2k.org/
 CP2K| Program compiled at                          Thu Oct 24 15:34:30 BST 2013
 CP2K| Program compiled on                                      spring.kcl.ac.uk
 CP2K| Program compiled for                                Linux-spring-gfortran
 CP2K| Input file name                                                   H2O.inp

 GLOBAL| Force Environment number                                              1
 GLOBAL| Basis set file name                                         ./BASIS_SET
 GLOBAL| Geminal file name                                         BASIS_GEMINAL
 GLOBAL| Potential file name                                         ./POTENTIAL
 GLOBAL| MM Potential file name                                     MM_POTENTIAL
 GLOBAL| Coordinate file name                                      __STD_INPUT__
 GLOBAL| Method name                                                        CP2K
 GLOBAL| Project name                                                        H2O
 GLOBAL| Preferred FFT library                                             FFTW3
 GLOBAL| Run type                                                        GEO_OPT
 GLOBAL| All-to-all communication in single precision                          F
 GLOBAL| FFTs using library dependent lengths                                  F
 GLOBAL| Global print level                                                  LOW
 GLOBAL| Total number of message passing processes                             1
 GLOBAL| Number of threads for this process                                    1
 GLOBAL| This output is from process                                           0

 MEMORY| system memory details [Kb]
 MEMORY|                        rank 0           min           max       average
 MEMORY| MemTotal             65362240      65362240      65362240      65362240
 MEMORY| MemFree              63578732      63578732      63578732      63578732
 MEMORY| Buffers                430200        430200        430200        430200
 MEMORY| Cached                 866244        866244        866244        866244
 MEMORY| Slab                   303724        303724        303724        303724
 MEMORY| SReclaimable                0             0             0             0
 MEMORY| MemLikelyFree        64875176      64875176      64875176      64875176


 GENERATE|  Preliminary Number of Bonds generated:                             0
 GENERATE|  Achieved consistency in connectivity generation.

 *******************************************************************************
 *******************************************************************************
 **                                                                           **
 **     #####                         ##              ##                      **
 **    ##   ##            ##          ##              ##                      **
 **   ##     ##                       ##            ######                    **
 **   ##     ##  ##   ##  ##   #####  ##  ##   ####   ##    #####    #####    **
 **   ##     ##  ##   ##  ##  ##      ## ##   ##      ##   ##   ##  ##   ##   **
 **   ##  ## ##  ##   ##  ##  ##      ####     ###    ##   ######   ######    **
 **    ##  ###   ##   ##  ##  ##      ## ##      ##   ##   ##       ##        **
 **     #######   #####   ##   #####  ##  ##  ####    ##    #####   ##        **
 **           ##                                                    ##        **
 **                                                                           **
 **                                                ... make the atoms dance   **
 **                                                                           **
 **            Copyright (C) by CP2K Developers Group (2000 - 2013)           **
 **                                                                           **
 *******************************************************************************


 SCF PARAMETERS         Density guess:                                    ATOMIC
                        --------------------------------------------------------
                        max_scf:                                             200
                        max_scf_history:                                       0
                        max_diis:                                              4
                        --------------------------------------------------------
                        eps_scf:                                        1.00E-05
                        eps_scf_history:                                0.00E+00
                        eps_diis:                                       1.00E-01
                        eps_eigval:                                     1.00E-05
                        --------------------------------------------------------
                        level_shift [a.u.]:                                 0.00
                        --------------------------------------------------------
                        Mixing method:                              PULAY_MIXING
                                                charge density mixing in g-space
                        --------------------------------------------------------
                        No outer SCF

 *******************************************************************************
 ***                     STARTING GEOMETRY OPTIMIZATION                      ***
 ***                           CONJUGATE GRADIENTS                           ***
 *******************************************************************************

 Number of electrons:                                                          8
 Number of occupied orbitals:                                                  4
 Number of molecular orbitals:                                                 4

 Number of orbital functions:                                                 23
 Number of independent orbital functions:                                     23

 Extrapolation method: initial_guess


 SCF WAVEFUNCTION OPTIMIZATION

  Step     Update method      Time    Convergence         Total energy    Change
  ------------------------------------------------------------------------------
     1 NoMix/Diag. 0.50E+00    0.6     1.14126074       -17.0091284306 -1.70E+01
     2 Pulay/Diag. 0.50E+00    1.1     0.37692421       -15.9319529123  1.08E+00
     3 Pulay/Diag. 0.50E+00    1.1     0.08104039       -17.4315722690 -1.50E+00
     4 Pulay/Diag. 0.50E+00    1.1     0.01022197       -17.1557819144  2.76E-01
     5 Pulay/Diag. 0.50E+00    1.1     0.00392885       -17.1916748347 -3.59E-02
     6 Pulay/Diag. 0.50E+00    1.1     0.00130980       -17.1693054239  2.24E-02
     7 Pulay/Diag. 0.50E+00    1.1     0.00059051       -17.1649261163  4.38E-03
     8 Pulay/Diag. 0.50E+00    1.1     0.00056162       -17.1645402028  3.86E-04
     9 Pulay/Diag. 0.50E+00    1.1     0.00020889       -17.1637669166  7.73E-04
    10 Pulay/Diag. 0.50E+00    1.1     0.00008745       -17.1638478825 -8.10E-05
    11 Pulay/Diag. 0.50E+00    1.1     0.00003405       -17.1636663285  1.82E-04
    12 Pulay/Diag. 0.50E+00    1.1     0.00001742       -17.1637269776 -6.06E-05
    13 Pulay/Diag. 0.50E+00    1.1     0.00000474       -17.1636724752  5.45E-05

  *** SCF run converged in    13 steps ***


  Electronic density on regular grids:         -8.0000016694       -0.0000016694
  Core density on regular grids:                7.9999999260       -0.0000000740
  Total charge density on r-space grids:       -0.0000017433
  Total charge density g-space grids:          -0.0000017433

  Overlap energy of the core charge distribution:               0.00000008790619
  Self energy of the core charge distribution:                -43.83289054591484
  Core Hamiltonian energy:                                     12.88082901797401
  Hartree energy:                                              17.93243606773645
  Exchange-correlation energy:                                 -4.14404710293828

  Total energy:                                               -17.16367247523647

 ENERGY| Total FORCE_EVAL ( QS ) energy (a.u.):              -17.163667082526779


 --------  Informations at step =     0 ------------
  Optimization Method        =                   SD
  Total Energy               =       -17.1636670825
  Used time                  =               16.051
 ---------------------------------------------------

 --------------------------
 OPTIMIZATION STEP:      1
 --------------------------

 Number of electrons:                                                          8
 Number of occupied orbitals:                                                  4
 Number of molecular orbitals:                                                 4

 Number of orbital functions:                                                 23
 Number of independent orbital functions:                                     23

  Parameters for the always stable predictor-corrector (ASPC) method:

  ASPC order: 0

  B(1) =   1.000000

 Extrapolation method: ASPC


 SCF WAVEFUNCTION OPTIMIZATION

  Step     Update method      Time    Convergence         Total energy    Change
  ------------------------------------------------------------------------------
     1 Pulay/Diag. 0.50E+00    0.5     0.00000319       -17.1636670825 -1.72E+01

  *** SCF run converged in     1 steps ***


  Electronic density on regular grids:         -8.0000016694       -0.0000016694
  Core density on regular grids:                7.9999999260       -0.0000000740
  Total charge density on r-space grids:       -0.0000017433
  Total charge density g-space grids:          -0.0000017433

  Overlap energy of the core charge distribution:               0.00000008790619
  Self energy of the core charge distribution:                -43.83289054591484
  Core Hamiltonian energy:                                     12.88083641142988
  Hartree energy:                                              17.93243528069200
  Exchange-correlation energy:                                 -4.14404831664001

  Total energy:                                               -17.16366708252677

 ENERGY| Total FORCE_EVAL ( QS ) energy (a.u.):              -17.163667082526775


 Number of electrons:                                                          8
 Number of occupied orbitals:                                                  4
 Number of molecular orbitals:                                                 4

 Number of orbital functions:                                                 23
 Number of independent orbital functions:                                     23

  Parameters for the always stable predictor-corrector (ASPC) method:

  ASPC order: 0

  B(1) =   2.000000
  B(2) =  -1.000000

 Extrapolation method: ASPC


 SCF WAVEFUNCTION OPTIMIZATION

  Step     Update method      Time    Convergence         Total energy    Change
  ------------------------------------------------------------------------------
     1 Pulay/Diag. 0.50E+00    0.5     0.09314893       -17.1596411102 -1.72E+01
     2 Pulay/Diag. 0.50E+00    1.0     0.05242231       -17.3364934962 -1.77E-01
     3 Pulay/Diag. 0.50E+00    1.1     0.01721066       -17.1071065770  2.29E-01
     4 Pulay/Diag. 0.50E+00    1.1     0.00188574       -17.1639028607 -5.68E-02
     5 Pulay/Diag. 0.50E+00    1.1     0.00038991       -17.1591802039  4.72E-03
     6 Pulay/Diag. 0.50E+00    1.1     0.00015544       -17.1608426971 -1.66E-03
     7 Pulay/Diag. 0.50E+00    1.1     0.00004638       -17.1613983340 -5.56E-04
     8 Pulay/Diag. 0.50E+00    1.2     0.00003099       -17.1614614029 -6.31E-05
     9 Pulay/Diag. 0.50E+00    1.2     0.00001176       -17.1614750194 -1.36E-05
    10 Pulay/Diag. 0.50E+00    1.2     0.00000549       -17.1614738322  1.19E-06

  *** SCF run converged in    10 steps ***


  Electronic density on regular grids:         -8.0000016489       -0.0000016489
  Core density on regular grids:                7.9999997971       -0.0000002029
  Total charge density on r-space grids:       -0.0000018518
  Total charge density g-space grids:          -0.0000018518

  Overlap energy of the core charge distribution:               0.00000000989725
  Self energy of the core charge distribution:                -43.83289054591484
  Core Hamiltonian energy:                                     12.69954411811351
  Hartree energy:                                              18.06385524344190
  Exchange-correlation energy:                                 -4.09198265770862

  Total energy:                                               -17.16147383217079

 ENERGY| Total FORCE_EVAL ( QS ) energy (a.u.):              -17.161473832170792


 Number of electrons:                                                          8
 Number of occupied orbitals:                                                  4
 Number of molecular orbitals:                                                 4

 Number of orbital functions:                                                 23
 Number of independent orbital functions:                                     23

  Parameters for the always stable predictor-corrector (ASPC) method:

  ASPC order: 1

  B(1) =   2.500000
  B(2) =  -2.000000
  B(3) =   0.500000

 Extrapolation method: ASPC


 SCF WAVEFUNCTION OPTIMIZATION

  Step     Update method      Time    Convergence         Total energy    Change
  ------------------------------------------------------------------------------
     1 Pulay/Diag. 0.50E+00    0.5     0.35670575       -17.0997779604 -1.71E+01
     2 Pulay/Diag. 0.50E+00    1.1     0.17256417       -16.4457222936  6.54E-01
     3 Pulay/Diag. 0.50E+00    1.1     0.05554014       -17.2035105556 -7.58E-01
     4 Pulay/Diag. 0.50E+00    1.1     0.01055538       -17.1068669901  9.66E-02
     5 Pulay/Diag. 0.50E+00    1.2     0.00166654       -17.1409680444 -3.41E-02
     6 Pulay/Diag. 0.50E+00    1.2     0.00065723       -17.1348781226  6.09E-03
     7 Pulay/Diag. 0.50E+00    1.2     0.00017923       -17.1331525275  1.73E-03
     8 Pulay/Diag. 0.50E+00    1.2     0.00016873       -17.1329573629  1.95E-04
     9 Pulay/Diag. 0.50E+00    1.2     0.00004880       -17.1328642651  9.31E-05
    10 Pulay/Diag. 0.50E+00    1.2     0.00002857       -17.1328976616 -3.34E-05
    11 Pulay/Diag. 0.50E+00    1.2     0.00000781       -17.1328740965  2.36E-05

  *** SCF run converged in    11 steps ***


  Electronic density on regular grids:         -8.0000016501       -0.0000016501
  Core density on regular grids:                7.9999997218       -0.0000002782
  Total charge density on r-space grids:       -0.0000019283
  Total charge density g-space grids:          -0.0000019283

  Overlap energy of the core charge distribution:               0.00000234899953
  Self energy of the core charge distribution:                -43.83289054591484
  Core Hamiltonian energy:                                     13.24448189418320
  Hartree energy:                                              17.69629833702023
  Exchange-correlation energy:                                 -4.24076613080539

  Total energy:                                               -17.13287409651727

 ENERGY| Total FORCE_EVAL ( QS ) energy (a.u.):              -17.132874096517270


 *******************************************************************************
 ***                 MNBRACK - NUMBER OF ENERGY EVALUATIONS :       3        ***
 *******************************************************************************

 Number of electrons:                                                          8
 Number of occupied orbitals:                                                  4
 Number of molecular orbitals:                                                 4

 Number of orbital functions:                                                 23
 Number of independent orbital functions:                                     23

  Parameters for the always stable predictor-corrector (ASPC) method:

  ASPC order: 2

  B(1) =   2.800000
  B(2) =  -2.800000
  B(3) =   1.200000
  B(4) =  -0.200000

 Extrapolation method: ASPC


 SCF WAVEFUNCTION OPTIMIZATION

  Step     Update method      Time    Convergence         Total energy    Change
  ------------------------------------------------------------------------------
     1 Pulay/Diag. 0.50E+00    0.5     0.81656101       -17.0612665052 -1.71E+01
     2 Pulay/Diag. 0.50E+00    1.1     0.32206409       -18.3378181460 -1.28E+00
     3 Pulay/Diag. 0.50E+00    1.1     0.10971166       -16.8855067378  1.45E+00
     4 Pulay/Diag. 0.50E+00    1.1     0.01798009       -17.2034938506 -3.18E-01
     5 Pulay/Diag. 0.50E+00    1.1     0.00242339       -17.1508777852  5.26E-02
     6 Pulay/Diag. 0.50E+00    1.2     0.00081669       -17.1607007064 -9.82E-03
     7 Pulay/Diag. 0.50E+00    1.2     0.00027040       -17.1633320812 -2.63E-03
     8 Pulay/Diag. 0.50E+00    1.2     0.00019397       -17.1636753049 -3.43E-04
     9 Pulay/Diag. 0.50E+00    1.2     0.00006461       -17.1637164178 -4.11E-05
    10 Pulay/Diag. 0.50E+00    1.2     0.00002902       -17.1636878620  2.86E-05
    11 Pulay/Diag. 0.50E+00    1.2     0.00001741       -17.1636771203  1.07E-05
    12 Pulay/Diag. 0.50E+00    1.2     0.00000536       -17.1636746497  2.47E-06

  *** SCF run converged in    12 steps ***


  Electronic density on regular grids:         -8.0000016694       -0.0000016694
  Core density on regular grids:                7.9999999260       -0.0000000740
  Total charge density on r-space grids:       -0.0000017433
  Total charge density g-space grids:          -0.0000017433

  Overlap energy of the core charge distribution:               0.00000008790619
  Self energy of the core charge distribution:                -43.83289054591484
  Core Hamiltonian energy:                                     12.88081888982946
  Hartree energy:                                              17.93244598082056
  Exchange-correlation energy:                                 -4.14404906235695

  Total energy:                                               -17.16367464971557

 ENERGY| Total FORCE_EVAL ( QS ) energy (a.u.):              -17.163667082526242


 Number of electrons:                                                          8
 Number of occupied orbitals:                                                  4
 Number of molecular orbitals:                                                 4

 Number of orbital functions:                                                 23
 Number of independent orbital functions:                                     23

  Parameters for the always stable predictor-corrector (ASPC) method:

  ASPC order: 3

  B(1) =   3.000000
  B(2) =  -3.428571
  B(3) =   1.928571
  B(4) =  -0.571429
  B(5) =   0.071429

 Extrapolation method: ASPC


 SCF WAVEFUNCTION OPTIMIZATION

  Step     Update method      Time    Convergence         Total energy    Change
  ------------------------------------------------------------------------------
     1 Pulay/Diag. 0.50E+00    0.5     0.65602547       -17.0592440578 -1.71E+01
     2 Pulay/Diag. 0.50E+00    1.1     0.42094204       -15.6568085897  1.40E+00
     3 Pulay/Diag. 0.50E+00    1.1     0.12091188       -17.5105859460 -1.85E+00
     4 Pulay/Diag. 0.50E+00    1.1     0.01071531       -17.1551034320  3.55E-01
     5 Pulay/Diag. 0.50E+00    1.2     0.00331085       -17.1821879153 -2.71E-02
     6 Pulay/Diag. 0.50E+00    1.2     0.00133765       -17.1693084599  1.29E-02
     7 Pulay/Diag. 0.50E+00    1.2     0.00044932       -17.1649104554  4.40E-03
     8 Pulay/Diag. 0.50E+00    1.2     0.00031926       -17.1643558972  5.55E-04
     9 Pulay/Diag. 0.50E+00    1.2     0.00010877       -17.1640915693  2.64E-04
    10 Pulay/Diag. 0.50E+00    1.2     0.00005875       -17.1641580185 -6.64E-05
    11 Pulay/Diag. 0.50E+00    1.2     0.00001449       -17.1640970467  6.10E-05
    12 Pulay/Diag. 0.50E+00    1.2     0.00000563       -17.1641253297 -2.83E-05

  *** SCF run converged in    12 steps ***


  Electronic density on regular grids:         -8.0000016667       -0.0000016667
  Core density on regular grids:                7.9999997526       -0.0000002474
  Total charge density on r-space grids:       -0.0000019141
  Total charge density g-space grids:          -0.0000019141

  Overlap energy of the core charge distribution:               0.00000002993139
  Self energy of the core charge distribution:                -43.83289054591484
  Core Hamiltonian energy:                                     12.78640769380675
  Hartree energy:                                              17.99968668426500
  Exchange-correlation energy:                                 -4.11732919182507

  Total energy:                                               -17.16412532973676

 ENERGY| Total FORCE_EVAL ( QS ) energy (a.u.):              -17.164119921466458


 Number of electrons:                                                          8
 Number of occupied orbitals:                                                  4
 Number of molecular orbitals:                                                 4

 Number of orbital functions:                                                 23
 Number of independent orbital functions:                                     23

  Parameters for the always stable predictor-corrector (ASPC) method:

  ASPC order: 3

  B(1) =   3.000000
  B(2) =  -3.428571
  B(3) =   1.928571
  B(4) =  -0.571429
  B(5) =   0.071429

 Extrapolation method: ASPC


 SCF WAVEFUNCTION OPTIMIZATION

  Step     Update method      Time    Convergence         Total energy    Change
  ------------------------------------------------------------------------------
     1 Pulay/Diag. 0.50E+00    0.5     0.25607537       -17.1496587234 -1.71E+01
     2 Pulay/Diag. 0.50E+00    1.1     0.14812337       -17.6889529824 -5.39E-01
     3 Pulay/Diag. 0.50E+00    1.1     0.04632243       -17.0213739009  6.68E-01
     4 Pulay/Diag. 0.50E+00    1.1     0.00488297       -17.1704574872 -1.49E-01
     5 Pulay/Diag. 0.50E+00    1.1     0.00098556       -17.1590405561  1.14E-02
     6 Pulay/Diag. 0.50E+00    1.2     0.00037165       -17.1629843709 -3.94E-03
     7 Pulay/Diag. 0.50E+00    1.2     0.00012790       -17.1642104659 -1.23E-03
     8 Pulay/Diag. 0.50E+00    1.2     0.00008048       -17.1643615861 -1.51E-04
     9 Pulay/Diag. 0.50E+00    1.2     0.00002814       -17.1643652869 -3.70E-06
    10 Pulay/Diag. 0.50E+00    1.2     0.00001260       -17.1643516040  1.37E-05
    11 Pulay/Diag. 0.50E+00    1.2     0.00000609       -17.1643466946  4.91E-06

  *** SCF run converged in    11 steps ***


  Electronic density on regular grids:         -8.0000016641       -0.0000016641
  Core density on regular grids:                7.9999997913       -0.0000002087
  Total charge density on r-space grids:       -0.0000018728
  Total charge density g-space grids:          -0.0000018728

  Overlap energy of the core charge distribution:               0.00000004390668
  Self energy of the core charge distribution:                -43.83289054591484
  Core Hamiltonian energy:                                     12.81880460581665
  Hartree energy:                                              17.97632913086666
  Exchange-correlation energy:                                 -4.12658992930718

  Total energy:                                               -17.16434669463202

 ENERGY| Total FORCE_EVAL ( QS ) energy (a.u.):              -17.164344232801547


 Number of electrons:                                                          8
 Number of occupied orbitals:                                                  4
 Number of molecular orbitals:                                                 4

 Number of orbital functions:                                                 23
 Number of independent orbital functions:                                     23

  Parameters for the always stable predictor-corrector (ASPC) method:

  ASPC order: 3

  B(1) =   3.000000
  B(2) =  -3.428571
  B(3) =   1.928571
  B(4) =  -0.571429
  B(5) =   0.071429

 Extrapolation method: ASPC


 SCF WAVEFUNCTION OPTIMIZATION

  Step     Update method      Time    Convergence         Total energy    Change
  ------------------------------------------------------------------------------
     1 Pulay/Diag. 0.50E+00    0.5     0.01620034       -17.1643144601 -1.72E+01
     2 Pulay/Diag. 0.50E+00    1.1     0.00671754       -17.1421863988  2.21E-02
     3 Pulay/Diag. 0.50E+00    1.1     0.00153561       -17.1709307686 -2.87E-02
     4 Pulay/Diag. 0.50E+00    1.1     0.00006308       -17.1640374947  6.89E-03
     5 Pulay/Diag. 0.50E+00    1.2     0.00001385       -17.1642837612 -2.46E-04
     6 Pulay/Diag. 0.50E+00    1.2     0.00000890       -17.1643184929 -3.47E-05

  *** SCF run converged in     6 steps ***


  Electronic density on regular grids:         -8.0000016642       -0.0000016642
  Core density on regular grids:                7.9999997958       -0.0000002042
  Total charge density on r-space grids:       -0.0000018684
  Total charge density g-space grids:          -0.0000018684

  Overlap energy of the core charge distribution:               0.00000004471872
  Self energy of the core charge distribution:                -43.83289054591484
  Core Hamiltonian energy:                                     12.82041060723368
  Hartree energy:                                              17.97519871941514
  Exchange-correlation energy:                                 -4.12703731838550

  Total energy:                                               -17.16431849293280

 ENERGY| Total FORCE_EVAL ( QS ) energy (a.u.):              -17.164344750827542


 Number of electrons:                                                          8
 Number of occupied orbitals:                                                  4
 Number of molecular orbitals:                                                 4

 Number of orbital functions:                                                 23
 Number of independent orbital functions:                                     23

  Parameters for the always stable predictor-corrector (ASPC) method:

  ASPC order: 3

  B(1) =   3.000000
  B(2) =  -3.428571
  B(3) =   1.928571
  B(4) =  -0.571429
  B(5) =   0.071429

 Extrapolation method: ASPC


 SCF WAVEFUNCTION OPTIMIZATION

  Step     Update method      Time    Convergence         Total energy    Change
  ------------------------------------------------------------------------------
     1 Pulay/Diag. 0.50E+00    0.5     0.03406702       -17.1640999970 -1.72E+01
     2 Pulay/Diag. 0.50E+00    1.1     0.01669989       -17.1042489171  5.99E-02
     3 Pulay/Diag. 0.50E+00    1.1     0.00562704       -17.1789823745 -7.47E-02
     4 Pulay/Diag. 0.50E+00    1.1     0.00080420       -17.1628295901  1.62E-02
     5 Pulay/Diag. 0.50E+00    1.2     0.00014566       -17.1651708651 -2.34E-03
     6 Pulay/Diag. 0.50E+00    1.2     0.00005877       -17.1645696322  6.01E-04
     7 Pulay/Diag. 0.50E+00    1.2     0.00001630       -17.1643757592  1.94E-04
     8 Pulay/Diag. 0.50E+00    1.2     0.00001289       -17.1643537465  2.20E-05
     9 Pulay/Diag. 0.50E+00    1.2     0.00000429       -17.1643432927  1.05E-05

  *** SCF run converged in     9 steps ***


  Electronic density on regular grids:         -8.0000016643       -0.0000016643
  Core density on regular grids:                7.9999997977       -0.0000002023
  Total charge density on r-space grids:       -0.0000018665
  Total charge density g-space grids:          -0.0000018665

  Overlap energy of the core charge distribution:               0.00000004502459
  Self energy of the core charge distribution:                -43.83289054591484
  Core Hamiltonian energy:                                     12.82098050186069
  Hartree energy:                                              17.97477184026135
  Exchange-correlation energy:                                 -4.12720513395545

  Total energy:                                               -17.16434329272366

 ENERGY| Total FORCE_EVAL ( QS ) energy (a.u.):              -17.164344686958589


 *******************************************************************************
 ***                 BRENT   - NUMBER OF ENERGY EVALUATIONS :       5        ***
 *******************************************************************************

 --------  Informations at step =     1 ------------
  Optimization Method        =                   SD
  Total Energy               =       -17.1643447508
  Real energy change         =        -0.0006776683
  Decrease in energy         =                  YES
  Used time                  =               90.837

  Convergence check :
  Max. step size             =         0.0336570168
  Conv. limit for step size  =         0.0010000000
  Convergence in step size   =                   NO
  RMS step size              =         0.0168136889
  Conv. limit for RMS step   =         0.0010000000
  Convergence in RMS step    =                   NO
  Max. gradient              =         0.0182785685
  Conv. limit for gradients  =         0.0010000000
  Conv. for gradients        =                   NO
  RMS gradient               =         0.0091312361
  Conv. limit for RMS grad.  =         0.0010000000
  Conv. for gradients        =                   NO
 ---------------------------------------------------

 Number of electrons:                                                          8
 Number of occupied orbitals:                                                  4
 Number of molecular orbitals:                                                 4

 Number of orbital functions:                                                 23
 Number of independent orbital functions:                                     23

  Parameters for the always stable predictor-corrector (ASPC) method:

  ASPC order: 3

  B(1) =   3.000000
  B(2) =  -3.428571
  B(3) =   1.928571
  B(4) =  -0.571429
  B(5) =   0.071429

 Extrapolation method: ASPC


 SCF WAVEFUNCTION OPTIMIZATION

  Step     Update method      Time    Convergence         Total energy    Change
  ------------------------------------------------------------------------------
     1 Pulay/Diag. 0.50E+00    0.5     0.01125367       -17.1643176223 -1.72E+01
     2 Pulay/Diag. 0.50E+00    1.1     0.00576001       -17.1849798946 -2.07E-02
     3 Pulay/Diag. 0.50E+00    1.1     0.00190123       -17.1591895975  2.58E-02
     4 Pulay/Diag. 0.50E+00    1.1     0.00025408       -17.1647958475 -5.61E-03
     5 Pulay/Diag. 0.50E+00    1.1     0.00004687       -17.1640832862  7.13E-04
     6 Pulay/Diag. 0.50E+00    1.2     0.00001866       -17.1642752777 -1.92E-04
     7 Pulay/Diag. 0.50E+00    1.2     0.00000508       -17.1643364606 -6.12E-05

  *** SCF run converged in     7 steps ***


  Electronic density on regular grids:         -8.0000016642       -0.0000016642
  Core density on regular grids:                7.9999997958       -0.0000002042
  Total charge density on r-space grids:       -0.0000018684
  Total charge density g-space grids:          -0.0000018684

  Overlap energy of the core charge distribution:               0.00000004471872
  Self energy of the core charge distribution:                -43.83289054591484
  Core Hamiltonian energy:                                     12.82039054547135
  Hartree energy:                                              17.97520433100699
  Exchange-correlation energy:                                 -4.12704083590046

  Total energy:                                               -17.16433646061824

 ENERGY| Total FORCE_EVAL ( QS ) energy (a.u.):              -17.164344750825521


 --------------------------
 OPTIMIZATION STEP:      2
 --------------------------

 Number of electrons:                                                          8
 Number of occupied orbitals:                                                  4
 Number of molecular orbitals:                                                 4

 Number of orbital functions:                                                 23
 Number of independent orbital functions:                                     23

  Parameters for the always stable predictor-corrector (ASPC) method:

  ASPC order: 3

  B(1) =   3.000000
  B(2) =  -3.428571
  B(3) =   1.928571
  B(4) =  -0.571429
  B(5) =   0.071429

 Extrapolation method: ASPC


 SCF WAVEFUNCTION OPTIMIZATION

  Step     Update method      Time    Convergence         Total energy    Change
  ------------------------------------------------------------------------------
     1 Pulay/Diag. 0.50E+00    0.5     0.00178634       -17.1643440672 -1.72E+01
     2 Pulay/Diag. 0.50E+00    1.1     0.00091688       -17.1610761917  3.27E-03
     3 Pulay/Diag. 0.50E+00    1.1     0.00029574       -17.1651676270 -4.09E-03
     4 Pulay/Diag. 0.50E+00    1.1     0.00003862       -17.1642796677  8.88E-04
     5 Pulay/Diag. 0.50E+00    1.2     0.00000742       -17.1643874695 -1.08E-04

  *** SCF run converged in     5 steps ***


  Electronic density on regular grids:         -8.0000016642       -0.0000016642
  Core density on regular grids:                7.9999997958       -0.0000002042
  Total charge density on r-space grids:       -0.0000018684
  Total charge density g-space grids:          -0.0000018684

  Overlap energy of the core charge distribution:               0.00000004471872
  Self energy of the core charge distribution:                -43.83289054591484
  Core Hamiltonian energy:                                     12.82035479376651
  Hartree energy:                                              17.97518460709966
  Exchange-correlation energy:                                 -4.12703636918320

  Total energy:                                               -17.16438746951314

 ENERGY| Total FORCE_EVAL ( QS ) energy (a.u.):              -17.164387469513144


 Number of electrons:                                                          8
 Number of occupied orbitals:                                                  4
 Number of molecular orbitals:                                                 4

 Number of orbital functions:                                                 23
 Number of independent orbital functions:                                     23

  Parameters for the always stable predictor-corrector (ASPC) method:

  ASPC order: 3

  B(1) =   3.000000
  B(2) =  -3.428571
  B(3) =   1.928571
  B(4) =  -0.571429
  B(5) =   0.071429

 Extrapolation method: ASPC


 SCF WAVEFUNCTION OPTIMIZATION

  Step     Update method      Time    Convergence         Total energy    Change
  ------------------------------------------------------------------------------
     1 Pulay/Diag. 0.50E+00    0.5     0.01883382       -17.1642290770 -1.72E+01
     2 Pulay/Diag. 0.50E+00    1.1     0.00144760       -17.1634885418  7.41E-04
     3 Pulay/Diag. 0.50E+00    1.1     0.00076880       -17.1633552375  1.33E-04
     4 Pulay/Diag. 0.50E+00    1.1     0.00065799       -17.1618509856  1.50E-03
     5 Pulay/Diag. 0.50E+00    1.2     0.00010833       -17.1647392637 -2.89E-03
     6 Pulay/Diag. 0.50E+00    1.2     0.00001867       -17.1643040430  4.35E-04
     7 Pulay/Diag. 0.50E+00    1.2     0.00000510       -17.1642924469  1.16E-05

  *** SCF run converged in     7 steps ***


  Electronic density on regular grids:         -8.0000016383       -0.0000016383
  Core density on regular grids:                7.9999996330       -0.0000003670
  Total charge density on r-space grids:       -0.0000020054
  Total charge density g-space grids:          -0.0000020054

  Overlap energy of the core charge distribution:               0.00000004717883
  Self energy of the core charge distribution:                -43.83289054591484
  Core Hamiltonian energy:                                     12.82261556545921
  Hartree energy:                                              17.97352730351612
  Exchange-correlation energy:                                 -4.12754481712457

  Total energy:                                               -17.16429244688525

 ENERGY| Total FORCE_EVAL ( QS ) energy (a.u.):              -17.164292446885248


 Number of electrons:                                                          8
 Number of occupied orbitals:                                                  4
 Number of molecular orbitals:                                                 4

 Number of orbital functions:                                                 23
 Number of independent orbital functions:                                     23

  Parameters for the always stable predictor-corrector (ASPC) method:

  ASPC order: 3

  B(1) =   3.000000
  B(2) =  -3.428571
  B(3) =   1.928571
  B(4) =  -0.571429
  B(5) =   0.071429

 Extrapolation method: ASPC


 SCF WAVEFUNCTION OPTIMIZATION

  Step     Update method      Time    Convergence         Total energy    Change
  ------------------------------------------------------------------------------
     1 Pulay/Diag. 0.50E+00    0.5     0.08748390       -17.1626675359 -1.72E+01
     2 Pulay/Diag. 0.50E+00    1.1     0.00869882       -17.1744207651 -1.18E-02
     3 Pulay/Diag. 0.50E+00    1.1     0.00492822       -17.1688112015  5.61E-03
     4 Pulay/Diag. 0.50E+00    1.1     0.00406450       -17.1801885582 -1.14E-02
     5 Pulay/Diag. 0.50E+00    1.2     0.00040090       -17.1624285631  1.78E-02
     6 Pulay/Diag. 0.50E+00    1.2     0.00009738       -17.1637709580 -1.34E-03
     7 Pulay/Diag. 0.50E+00    1.2     0.00002626       -17.1638620215 -9.11E-05
     8 Pulay/Diag. 0.50E+00    1.2     0.00001440       -17.1638886655 -2.66E-05
     9 Pulay/Diag. 0.50E+00    1.2     0.00000574       -17.1638927611 -4.10E-06

  *** SCF run converged in     9 steps ***


  Electronic density on regular grids:         -8.0000017083       -0.0000017083
  Core density on regular grids:                8.0000001303        0.0000001303
  Total charge density on r-space grids:       -0.0000015780
  Total charge density g-space grids:          -0.0000015780

  Overlap energy of the core charge distribution:               0.00000004628670
  Self energy of the core charge distribution:                -43.83289054591484
  Core Hamiltonian energy:                                     12.81660493871823
  Hartree energy:                                              17.97844033432607
  Exchange-correlation energy:                                 -4.12604753450010

  Total energy:                                               -17.16389276108394

 ENERGY| Total FORCE_EVAL ( QS ) energy (a.u.):              -17.163892761083936


 *******************************************************************************
 ***                 MNBRACK - NUMBER OF ENERGY EVALUATIONS :       3        ***
 *******************************************************************************

 Number of electrons:                                                          8
 Number of occupied orbitals:                                                  4
 Number of molecular orbitals:                                                 4

 Number of orbital functions:                                                 23
 Number of independent orbital functions:                                     23

  Parameters for the always stable predictor-corrector (ASPC) method:

  ASPC order: 3

  B(1) =   3.000000
  B(2) =  -3.428571
  B(3) =   1.928571
  B(4) =  -0.571429
  B(5) =   0.071429

 Extrapolation method: ASPC


 SCF WAVEFUNCTION OPTIMIZATION

  Step     Update method      Time    Convergence         Total energy    Change
  ------------------------------------------------------------------------------
     1 Pulay/Diag. 0.50E+00    0.5     0.15723552       -17.1604095236 -1.72E+01
     2 Pulay/Diag. 0.50E+00    1.1     0.01562662       -17.1432337173  1.72E-02
     3 Pulay/Diag. 0.50E+00    1.1     0.00898724       -17.1560328507 -1.28E-02
     4 Pulay/Diag. 0.50E+00    1.1     0.00721788       -17.1350673719  2.10E-02
     5 Pulay/Diag. 0.50E+00    1.2     0.00066790       -17.1668046428 -3.17E-02
     6 Pulay/Diag. 0.50E+00    1.2     0.00011713       -17.1646401959  2.16E-03
     7 Pulay/Diag. 0.50E+00    1.2     0.00003686       -17.1644159587  2.24E-04
     8 Pulay/Diag. 0.50E+00    1.2     0.00002621       -17.1643583423  5.76E-05
     9 Pulay/Diag. 0.50E+00    1.2     0.00000848       -17.1643494315  8.91E-06

  *** SCF run converged in     9 steps ***


  Electronic density on regular grids:         -8.0000016642       -0.0000016642
  Core density on regular grids:                7.9999997958       -0.0000002042
  Total charge density on r-space grids:       -0.0000018684
  Total charge density g-space grids:          -0.0000018684

  Overlap energy of the core charge distribution:               0.00000004471872
  Self energy of the core charge distribution:                -43.83289054591484
  Core Hamiltonian energy:                                     12.82038529157481
  Hartree energy:                                              17.97519571173878
  Exchange-correlation energy:                                 -4.12703993359810

  Total energy:                                               -17.16434943148063

 ENERGY| Total FORCE_EVAL ( QS ) energy (a.u.):              -17.164344750795269


 Number of electrons:                                                          8
 Number of occupied orbitals:                                                  4
 Number of molecular orbitals:                                                 4

 Number of orbital functions:                                                 23
 Number of independent orbital functions:                                     23

  Parameters for the always stable predictor-corrector (ASPC) method:

  ASPC order: 3

  B(1) =   3.000000
  B(2) =  -3.428571
  B(3) =   1.928571
  B(4) =  -0.571429
  B(5) =   0.071429

 Extrapolation method: ASPC


 SCF WAVEFUNCTION OPTIMIZATION

  Step     Update method      Time    Convergence         Total energy    Change
  ------------------------------------------------------------------------------
     1 Pulay/Diag. 0.50E+00    0.5     0.13386955       -17.1615670512 -1.72E+01
     2 Pulay/Diag. 0.50E+00    1.1     0.00966117       -17.1737748910 -1.22E-02
     3 Pulay/Diag. 0.50E+00    1.1     0.00594804       -17.1716119666  2.16E-03
     4 Pulay/Diag. 0.50E+00    1.1     0.00501011       -17.1839350126 -1.23E-02
     5 Pulay/Diag. 0.50E+00    1.2     0.00065728       -17.1617524052  2.22E-02
     6 Pulay/Diag. 0.50E+00    1.2     0.00015268       -17.1642248403 -2.47E-03
     7 Pulay/Diag. 0.50E+00    1.2     0.00004198       -17.1643147907 -9.00E-05
     8 Pulay/Diag. 0.50E+00    1.2     0.00002149       -17.1643473827 -3.26E-05
     9 Pulay/Diag. 0.50E+00    1.2     0.00000818       -17.1643506375 -3.25E-06

  *** SCF run converged in     9 steps ***


  Electronic density on regular grids:         -8.0000016504       -0.0000016504
  Core density on regular grids:                7.9999997078       -0.0000002922
  Total charge density on r-space grids:       -0.0000019427
  Total charge density g-space grids:          -0.0000019427

  Overlap energy of the core charge distribution:               0.00000004558986
  Self energy of the core charge distribution:                -43.83289054591484
  Core Hamiltonian energy:                                     12.82151176777913
  Hartree energy:                                              17.97433028642683
  Exchange-correlation energy:                                 -4.12730219139964

  Total energy:                                               -17.16435063751867

 ENERGY| Total FORCE_EVAL ( QS ) energy (a.u.):              -17.164352299703623


 Number of electrons:                                                          8
 Number of occupied orbitals:                                                  4
 Number of molecular orbitals:                                                 4

 Number of orbital functions:                                                 23
 Number of independent orbital functions:                                     23

  Parameters for the always stable predictor-corrector (ASPC) method:

  ASPC order: 3

  B(1) =   3.000000
  B(2) =  -3.428571
  B(3) =   1.928571
  B(4) =  -0.571429
  B(5) =   0.071429

 Extrapolation method: ASPC


 SCF WAVEFUNCTION OPTIMIZATION

  Step     Update method      Time    Convergence         Total energy    Change
  ------------------------------------------------------------------------------
     1 Pulay/Diag. 0.50E+00    0.5     0.04824996       -17.1639997701 -1.72E+01
     2 Pulay/Diag. 0.50E+00    1.1     0.00397166       -17.1591825776  4.82E-03
     3 Pulay/Diag. 0.50E+00    1.1     0.00250056       -17.1616821905 -2.50E-03
     4 Pulay/Diag. 0.50E+00    1.1     0.00204121       -17.1560800792  5.60E-03
     5 Pulay/Diag. 0.50E+00    1.2     0.00020231       -17.1651227524 -9.04E-03
     6 Pulay/Diag. 0.50E+00    1.2     0.00004162       -17.1644354739  6.87E-04
     7 Pulay/Diag. 0.50E+00    1.2     0.00001091       -17.1643772083  5.83E-05
     8 Pulay/Diag. 0.50E+00    1.2     0.00000793       -17.1643612339  1.60E-05

  *** SCF run converged in     8 steps ***


  Electronic density on regular grids:         -8.0000016556       -0.0000016556
  Core density on regular grids:                7.9999997426       -0.0000002574
  Total charge density on r-space grids:       -0.0000019130
  Total charge density g-space grids:          -0.0000019130

  Overlap energy of the core charge distribution:               0.00000004515717
  Self energy of the core charge distribution:                -43.83289054591484
  Core Hamiltonian energy:                                     12.82106224146502
  Hartree energy:                                              17.97466564791540
  Exchange-correlation energy:                                 -4.12719862255560

  Total energy:                                               -17.16436123393285

 ENERGY| Total FORCE_EVAL ( QS ) energy (a.u.):              -17.164357819318919


 Number of electrons:                                                          8
 Number of occupied orbitals:                                                  4
 Number of molecular orbitals:                                                 4

 Number of orbital functions:                                                 23
 Number of independent orbital functions:                                     23

  Parameters for the always stable predictor-corrector (ASPC) method:

  ASPC order: 3

  B(1) =   3.000000
  B(2) =  -3.428571
  B(3) =   1.928571
  B(4) =  -0.571429
  B(5) =   0.071429

 Extrapolation method: ASPC


 SCF WAVEFUNCTION OPTIMIZATION

  Step     Update method      Time    Convergence         Total energy    Change
  ------------------------------------------------------------------------------
     1 Pulay/Diag. 0.50E+00    0.5     0.00294651       -17.1643568951 -1.72E+01
     2 Pulay/Diag. 0.50E+00    1.1     0.00035415       -17.1641481903  2.09E-04
     3 Pulay/Diag. 0.50E+00    1.1     0.00015403       -17.1642082488 -6.01E-05
     4 Pulay/Diag. 0.50E+00    1.1     0.00012071       -17.1639031901  3.05E-04
     5 Pulay/Diag. 0.50E+00    1.2     0.00001802       -17.1644264066 -5.23E-04
     6 Pulay/Diag. 0.50E+00    1.2     0.00000192       -17.1643591881  6.72E-05

  *** SCF run converged in     6 steps ***


  Electronic density on regular grids:         -8.0000016555       -0.0000016555
  Core density on regular grids:                7.9999997417       -0.0000002583
  Total charge density on r-space grids:       -0.0000019138
  Total charge density g-space grids:          -0.0000019138

  Overlap energy of the core charge distribution:               0.00000004516714
  Self energy of the core charge distribution:                -43.83289054591484
  Core Hamiltonian energy:                                     12.82107323008925
  Hartree energy:                                              17.97465868239386
  Exchange-correlation energy:                                 -4.12720059978790

  Total energy:                                               -17.16435918805249

 ENERGY| Total FORCE_EVAL ( QS ) energy (a.u.):              -17.164357823356635


 Number of electrons:                                                          8
 Number of occupied orbitals:                                                  4
 Number of molecular orbitals:                                                 4

 Number of orbital functions:                                                 23
 Number of independent orbital functions:                                     23

  Parameters for the always stable predictor-corrector (ASPC) method:

  ASPC order: 3

  B(1) =   3.000000
  B(2) =  -3.428571
  B(3) =   1.928571
  B(4) =  -0.571429
  B(5) =   0.071429

 Extrapolation method: ASPC


 SCF WAVEFUNCTION OPTIMIZATION

  Step     Update method      Time    Convergence         Total energy    Change
  ------------------------------------------------------------------------------
     1 Pulay/Diag. 0.50E+00    0.5     0.00802053       -17.1643473607 -1.72E+01
     2 Pulay/Diag. 0.50E+00    1.1     0.00075089       -17.1651422053 -7.95E-04
     3 Pulay/Diag. 0.50E+00    1.1     0.00042236       -17.1648297687  3.12E-04
     4 Pulay/Diag. 0.50E+00    1.1     0.00035232       -17.1657594648 -9.30E-04
     5 Pulay/Diag. 0.50E+00    1.1     0.00004055       -17.1642053519  1.55E-03
     6 Pulay/Diag. 0.50E+00    1.2     0.00000852       -17.1643479116 -1.43E-04

  *** SCF run converged in     6 steps ***


  Electronic density on regular grids:         -8.0000016554       -0.0000016554
  Core density on regular grids:                7.9999997412       -0.0000002588
  Total charge density on r-space grids:       -0.0000019143
  Total charge density g-space grids:          -0.0000019143

  Overlap energy of the core charge distribution:               0.00000004517292
  Self energy of the core charge distribution:                -43.83289054591484
  Core Hamiltonian energy:                                     12.82108857879664
  Hartree energy:                                              17.97465659363417
  Exchange-correlation energy:                                 -4.12720258330051

  Total energy:                                               -17.16434791161162

 ENERGY| Total FORCE_EVAL ( QS ) energy (a.u.):              -17.164357822016584


 *******************************************************************************
 ***                 BRENT   - NUMBER OF ENERGY EVALUATIONS :       5        ***
 *******************************************************************************

 --------  Informations at step =     2 ------------
  Optimization Method        =                   CG
  Total Energy               =       -17.1643578234
  Real energy change         =        -0.0000130725
  Decrease in energy         =                  YES
  Used time                  =               84.833

  Convergence check :
  Max. step size             =         0.0084583772
  Conv. limit for step size  =         0.0010000000
  Convergence in step size   =                   NO
  RMS step size              =         0.0041001011
  Conv. limit for RMS step   =         0.0010000000
  Convergence in RMS step    =                   NO
  Max. gradient              =         0.0014597313
  Conv. limit for gradients  =         0.0010000000
  Conv. for gradients        =                   NO
  RMS gradient               =         0.0007075880
  Conv. limit for RMS grad.  =         0.0010000000
  Conv. in RMS gradients     =                  YES
 ---------------------------------------------------

 Number of electrons:                                                          8
 Number of occupied orbitals:                                                  4
 Number of molecular orbitals:                                                 4

 Number of orbital functions:                                                 23
 Number of independent orbital functions:                                     23

  Parameters for the always stable predictor-corrector (ASPC) method:

  ASPC order: 3

  B(1) =   3.000000
  B(2) =  -3.428571
  B(3) =   1.928571
  B(4) =  -0.571429
  B(5) =   0.071429

 Extrapolation method: ASPC


 SCF WAVEFUNCTION OPTIMIZATION

  Step     Update method      Time    Convergence         Total energy    Change
  ------------------------------------------------------------------------------
     1 Pulay/Diag. 0.50E+00    0.5     0.00252682       -17.1643567924 -1.72E+01
     2 Pulay/Diag. 0.50E+00    1.1     0.00022895       -17.1641115745  2.45E-04
     3 Pulay/Diag. 0.50E+00    1.1     0.00013301       -17.1642100229 -9.84E-05
     4 Pulay/Diag. 0.50E+00    1.1     0.00011032       -17.1639166656  2.93E-04
     5 Pulay/Diag. 0.50E+00    1.1     0.00001229       -17.1644042656 -4.88E-04
     6 Pulay/Diag. 0.50E+00    1.2     0.00000255       -17.1643612620  4.30E-05

  *** SCF run converged in     6 steps ***


  Electronic density on regular grids:         -8.0000016555       -0.0000016555
  Core density on regular grids:                7.9999997417       -0.0000002583
  Total charge density on r-space grids:       -0.0000019138
  Total charge density g-space grids:          -0.0000019138

  Overlap energy of the core charge distribution:               0.00000004516714
  Self energy of the core charge distribution:                -43.83289054591484
  Core Hamiltonian energy:                                     12.82107156098274
  Hartree energy:                                              17.97465818333018
  Exchange-correlation energy:                                 -4.12720050558456

  Total energy:                                               -17.16436126201933

 ENERGY| Total FORCE_EVAL ( QS ) energy (a.u.):              -17.164357823356244


 --------------------------
 OPTIMIZATION STEP:      3
 --------------------------

 Number of electrons:                                                          8
 Number of occupied orbitals:                                                  4
 Number of molecular orbitals:                                                 4

 Number of orbital functions:                                                 23
 Number of independent orbital functions:                                     23

  Parameters for the always stable predictor-corrector (ASPC) method:

  ASPC order: 3

  B(1) =   3.000000
  B(2) =  -3.428571
  B(3) =   1.928571
  B(4) =  -0.571429
  B(5) =   0.071429

 Extrapolation method: ASPC


 SCF WAVEFUNCTION OPTIMIZATION

  Step     Update method      Time    Convergence         Total energy    Change
  ------------------------------------------------------------------------------
     1 Pulay/Diag. 0.50E+00    0.5     0.00011612       -17.1643578208 -1.72E+01
     2 Pulay/Diag. 0.50E+00    1.0     0.00000902       -17.1643628545 -5.03E-06

  *** SCF run converged in     2 steps ***


  Electronic density on regular grids:         -8.0000016554       -0.0000016554
  Core density on regular grids:                7.9999997417       -0.0000002583
  Total charge density on r-space grids:       -0.0000019137
  Total charge density g-space grids:          -0.0000019137

  Overlap energy of the core charge distribution:               0.00000004516714
  Self energy of the core charge distribution:                -43.83289054591484
  Core Hamiltonian energy:                                     12.82105997632089
  Hartree energy:                                              17.97466712860896
  Exchange-correlation energy:                                 -4.12719945867212

  Total energy:                                               -17.16436285448997

 ENERGY| Total FORCE_EVAL ( QS ) energy (a.u.):              -17.164362854489966


 Number of electrons:                                                          8
 Number of occupied orbitals:                                                  4
 Number of molecular orbitals:                                                 4

 Number of orbital functions:                                                 23
 Number of independent orbital functions:                                     23

  Parameters for the always stable predictor-corrector (ASPC) method:

  ASPC order: 3

  B(1) =   3.000000
  B(2) =  -3.428571
  B(3) =   1.928571
  B(4) =  -0.571429
  B(5) =   0.071429

 Extrapolation method: ASPC


 SCF WAVEFUNCTION OPTIMIZATION

  Step     Update method      Time    Convergence         Total energy    Change
  ------------------------------------------------------------------------------
     1 Pulay/Diag. 0.50E+00    0.5     0.00461243       -17.1643678820 -1.72E+01
     2 Pulay/Diag. 0.50E+00    1.1     0.00040361       -17.1635722282  7.96E-04
     3 Pulay/Diag. 0.50E+00    1.1     0.00019446       -17.1643687561 -7.97E-04
     4 Pulay/Diag. 0.50E+00    1.1     0.00011950       -17.1638664436  5.02E-04
     5 Pulay/Diag. 0.50E+00    1.1     0.00000776       -17.1643963231 -5.30E-04

  *** SCF run converged in     5 steps ***


  Electronic density on regular grids:         -8.0000016539       -0.0000016539
  Core density on regular grids:                7.9999997123       -0.0000002877
  Total charge density on r-space grids:       -0.0000019416
  Total charge density g-space grids:          -0.0000019416

  Overlap energy of the core charge distribution:               0.00000004552175
  Self energy of the core charge distribution:                -43.83289054591484
  Core Hamiltonian energy:                                     12.82200131109398
  Hartree energy:                                              17.97394011312336
  Exchange-correlation energy:                                 -4.12744724697194

  Total energy:                                               -17.16439632314768

 ENERGY| Total FORCE_EVAL ( QS ) energy (a.u.):              -17.164396323147677


 Number of electrons:                                                          8
 Number of occupied orbitals:                                                  4
 Number of molecular orbitals:                                                 4

 Number of orbital functions:                                                 23
 Number of independent orbital functions:                                     23

  Parameters for the always stable predictor-corrector (ASPC) method:

  ASPC order: 3

  B(1) =   3.000000
  B(2) =  -3.428571
  B(3) =   1.928571
  B(4) =  -0.571429
  B(5) =   0.071429

 Extrapolation method: ASPC


 SCF WAVEFUNCTION OPTIMIZATION

  Step     Update method      Time    Convergence         Total energy    Change
  ------------------------------------------------------------------------------
     1 Pulay/Diag. 0.50E+00    0.5     0.00173076       -17.1643777394 -1.72E+01
     2 Pulay/Diag. 0.50E+00    1.0     0.00015096       -17.1646606755 -2.83E-04
     3 Pulay/Diag. 0.50E+00    1.1     0.00008404       -17.1644101813  2.50E-04
     4 Pulay/Diag. 0.50E+00    1.1     0.00005342       -17.1646043347 -1.94E-04
     5 Pulay/Diag. 0.50E+00    1.1     0.00000379       -17.1643664682  2.38E-04

  *** SCF run converged in     5 steps ***


  Electronic density on regular grids:         -8.0000016515       -0.0000016515
  Core density on regular grids:                7.9999996759       -0.0000003241
  Total charge density on r-space grids:       -0.0000019756
  Total charge density g-space grids:          -0.0000019756

  Overlap energy of the core charge distribution:               0.00000004610784
  Self energy of the core charge distribution:                -43.83289054591484
  Core Hamiltonian energy:                                     12.82348828553160
  Hartree energy:                                              17.97285991155271
  Exchange-correlation energy:                                 -4.12782416552370

  Total energy:                                               -17.16436646824639

 ENERGY| Total FORCE_EVAL ( QS ) energy (a.u.):              -17.164366468246385


 *******************************************************************************
 ***                 MNBRACK - NUMBER OF ENERGY EVALUATIONS :       3        ***
 *******************************************************************************

 Number of electrons:                                                          8
 Number of occupied orbitals:                                                  4
 Number of molecular orbitals:                                                 4

 Number of orbital functions:                                                 23
 Number of independent orbital functions:                                     23

  Parameters for the always stable predictor-corrector (ASPC) method:

  ASPC order: 3

  B(1) =   3.000000
  B(2) =  -3.428571
  B(3) =   1.928571
  B(4) =  -0.571429
  B(5) =   0.071429

 Extrapolation method: ASPC


 SCF WAVEFUNCTION OPTIMIZATION

  Step     Update method      Time    Convergence         Total energy    Change
  ------------------------------------------------------------------------------
     1 Pulay/Diag. 0.50E+00    0.5     0.01629198       -17.1643381474 -1.72E+01
     2 Pulay/Diag. 0.50E+00    1.0     0.00134289       -17.1671420505 -2.80E-03
     3 Pulay/Diag. 0.50E+00    1.1     0.00065009       -17.1643133656  2.83E-03
     4 Pulay/Diag. 0.50E+00    1.1     0.00038072       -17.1660153805 -1.70E-03
     5 Pulay/Diag. 0.50E+00    1.1     0.00002188       -17.1642923505  1.72E-03
     6 Pulay/Diag. 0.50E+00    1.1     0.00000626       -17.1643482650 -5.59E-05

  *** SCF run converged in     6 steps ***


  Electronic density on regular grids:         -8.0000016539       -0.0000016539
  Core density on regular grids:                7.9999997123       -0.0000002877
  Total charge density on r-space grids:       -0.0000019416
  Total charge density g-space grids:          -0.0000019416

  Overlap energy of the core charge distribution:               0.00000004552175
  Self energy of the core charge distribution:                -43.83289054591484
  Core Hamiltonian energy:                                     12.82203800046740
  Hartree energy:                                              17.97395300977982
  Exchange-correlation energy:                                 -4.12744877482764

  Total energy:                                               -17.16434826497350

 ENERGY| Total FORCE_EVAL ( QS ) energy (a.u.):              -17.164370582764310


 Number of electrons:                                                          8
 Number of occupied orbitals:                                                  4
 Number of molecular orbitals:                                                 4

 Number of orbital functions:                                                 23
 Number of independent orbital functions:                                     23

  Parameters for the always stable predictor-corrector (ASPC) method:

  ASPC order: 3

  B(1) =   3.000000
  B(2) =  -3.428571
  B(3) =   1.928571
  B(4) =  -0.571429
  B(5) =   0.071429

 Extrapolation method: ASPC


 SCF WAVEFUNCTION OPTIMIZATION

  Step     Update method      Time    Convergence         Total energy    Change
  ------------------------------------------------------------------------------
     1 Pulay/Diag. 0.50E+00    0.5     0.02780149       -17.1642809191 -1.72E+01
     2 Pulay/Diag. 0.50E+00    1.0     0.00230834       -17.1596403680  4.64E-03
     3 Pulay/Diag. 0.50E+00    1.1     0.00111811       -17.1644751494 -4.83E-03
     4 Pulay/Diag. 0.50E+00    1.1     0.00065338       -17.1615545701  2.92E-03
     5 Pulay/Diag. 0.50E+00    1.1     0.00003859       -17.1645166665 -2.96E-03
     6 Pulay/Diag. 0.50E+00    1.1     0.00001113       -17.1644175312  9.91E-05
     7 Pulay/Diag. 0.50E+00    1.1     0.00000330       -17.1643877160  2.98E-05

  *** SCF run converged in     7 steps ***


  Electronic density on regular grids:         -8.0000016528       -0.0000016528
  Core density on regular grids:                7.9999996925       -0.0000003075
  Total charge density on r-space grids:       -0.0000019603
  Total charge density g-space grids:          -0.0000019603

  Overlap energy of the core charge distribution:               0.00000004581312
  Self energy of the core charge distribution:                -43.83289054591484
  Core Hamiltonian energy:                                     12.82275441182310
  Hartree energy:                                              17.97338766253627
  Exchange-correlation energy:                                 -4.12763929025080

  Total energy:                                               -17.16438771599315

 ENERGY| Total FORCE_EVAL ( QS ) energy (a.u.):              -17.164375831954104


 Number of electrons:                                                          8
 Number of occupied orbitals:                                                  4
 Number of molecular orbitals:                                                 4

 Number of orbital functions:                                                 23
 Number of independent orbital functions:                                     23

  Parameters for the always stable predictor-corrector (ASPC) method:

  ASPC order: 3

  B(1) =   3.000000
  B(2) =  -3.428571
  B(3) =   1.928571
  B(4) =  -0.571429
  B(5) =   0.071429

 Extrapolation method: ASPC


 SCF WAVEFUNCTION OPTIMIZATION

  Step     Update method      Time    Convergence         Total energy    Change
  ------------------------------------------------------------------------------
     1 Pulay/Diag. 0.50E+00    0.5     0.01978728       -17.1643284892 -1.72E+01
     2 Pulay/Diag. 0.50E+00    1.0     0.00160598       -17.1675890749 -3.26E-03
     3 Pulay/Diag. 0.50E+00    1.1     0.00080388       -17.1644326190  3.16E-03
     4 Pulay/Diag. 0.50E+00    1.1     0.00048815       -17.1664926165 -2.06E-03
     5 Pulay/Diag. 0.50E+00    1.1     0.00002913       -17.1642774325  2.22E-03
     6 Pulay/Diag. 0.50E+00    1.1     0.00000752       -17.1643489054 -7.15E-05

  *** SCF run converged in     6 steps ***


  Electronic density on regular grids:         -8.0000016522       -0.0000016522
  Core density on regular grids:                7.9999996800       -0.0000003200
  Total charge density on r-space grids:       -0.0000019722
  Total charge density g-space grids:          -0.0000019722

  Overlap energy of the core charge distribution:               0.00000004599331
  Self energy of the core charge distribution:                -43.83289054591484
  Core Hamiltonian energy:                                     12.82322430615833
  Hartree energy:                                              17.97307172966863
  Exchange-correlation energy:                                 -4.12775444129877

  Total energy:                                               -17.16434890539334

 ENERGY| Total FORCE_EVAL ( QS ) energy (a.u.):              -17.164376681917446


 Number of electrons:                                                          8
 Number of occupied orbitals:                                                  4
 Number of molecular orbitals:                                                 4

 Number of orbital functions:                                                 23
 Number of independent orbital functions:                                     23

  Parameters for the always stable predictor-corrector (ASPC) method:

  ASPC order: 3

  B(1) =   3.000000
  B(2) =  -3.428571
  B(3) =   1.928571
  B(4) =  -0.571429
  B(5) =   0.071429

 Extrapolation method: ASPC


 SCF WAVEFUNCTION OPTIMIZATION

  Step     Update method      Time    Convergence         Total energy    Change
  ------------------------------------------------------------------------------
     1 Pulay/Diag. 0.50E+00    0.5     0.00504734       -17.1643735218 -1.72E+01
     2 Pulay/Diag. 0.50E+00    1.0     0.00041563       -17.1635406532  8.33E-04
     3 Pulay/Diag. 0.50E+00    1.1     0.00020829       -17.1643774819 -8.37E-04
     4 Pulay/Diag. 0.50E+00    1.1     0.00012226       -17.1638409337  5.37E-04
     5 Pulay/Diag. 0.50E+00    1.1     0.00000678       -17.1644032478 -5.62E-04

  *** SCF run converged in     5 steps ***


  Electronic density on regular grids:         -8.0000016522       -0.0000016522
  Core density on regular grids:                7.9999996804       -0.0000003196
  Total charge density on r-space grids:       -0.0000019718
  Total charge density g-space grids:          -0.0000019718

  Overlap energy of the core charge distribution:               0.00000004598490
  Self energy of the core charge distribution:                -43.83289054591484
  Core Hamiltonian energy:                                     12.82316244295635
  Hartree energy:                                              17.97307217501266
  Exchange-correlation energy:                                 -4.12774736584280

  Total energy:                                               -17.16440324780371

 ENERGY| Total FORCE_EVAL ( QS ) energy (a.u.):              -17.164376683335345


 Number of electrons:                                                          8
 Number of occupied orbitals:                                                  4
 Number of molecular orbitals:                                                 4

 Number of orbital functions:                                                 23
 Number of independent orbital functions:                                     23

  Parameters for the always stable predictor-corrector (ASPC) method:

  ASPC order: 3

  B(1) =   3.000000
  B(2) =  -3.428571
  B(3) =   1.928571
  B(4) =  -0.571429
  B(5) =   0.071429

 Extrapolation method: ASPC


 SCF WAVEFUNCTION OPTIMIZATION

  Step     Update method      Time    Convergence         Total energy    Change
  ------------------------------------------------------------------------------
     1 Pulay/Diag. 0.50E+00    0.5     0.00100721       -17.1643765587 -1.72E+01
     2 Pulay/Diag. 0.50E+00    1.1     0.00008840       -17.1641886021  1.88E-04
     3 Pulay/Diag. 0.50E+00    1.1     0.00005032       -17.1643788289 -1.90E-04
     4 Pulay/Diag. 0.50E+00    1.1     0.00002576       -17.1642775891  1.01E-04
     5 Pulay/Diag. 0.50E+00    1.2     0.00000235       -17.1643816868 -1.04E-04

  *** SCF run converged in     5 steps ***


  Electronic density on regular grids:         -8.0000016522       -0.0000016522
  Core density on regular grids:                7.9999996808       -0.0000003192
  Total charge density on r-space grids:       -0.0000019714
  Total charge density g-space grids:          -0.0000019714

  Overlap energy of the core charge distribution:               0.00000004597658
  Self energy of the core charge distribution:                -43.83289054591484
  Core Hamiltonian energy:                                     12.82315869207691
  Hartree energy:                                              17.97309245368851
  Exchange-correlation energy:                                 -4.12774233258422

  Total energy:                                               -17.16438168675705

 ENERGY| Total FORCE_EVAL ( QS ) energy (a.u.):              -17.164376680781903


 *******************************************************************************
 ***                 BRENT   - NUMBER OF ENERGY EVALUATIONS :       5        ***
 *******************************************************************************

 --------  Informations at step =     3 ------------
  Optimization Method        =                   CG
  Total Energy               =       -17.1643766833
  Real energy change         =        -0.0000188600
  Decrease in energy         =                  YES
  Used time                  =               61.345

  Convergence check :
  Max. step size             =         0.0190351391
  Conv. limit for step size  =         0.0010000000
  Convergence in step size   =                   NO
  RMS step size              =         0.0074837796
  Conv. limit for RMS step   =         0.0010000000
  Convergence in RMS step    =                   NO
  Max. gradient              =         0.0033936444
  Conv. limit for gradients  =         0.0010000000
  Conv. for gradients        =                   NO
  RMS gradient               =         0.0013342318
  Conv. limit for RMS grad.  =         0.0010000000
  Conv. for gradients        =                   NO
 ---------------------------------------------------

 Number of electrons:                                                          8
 Number of occupied orbitals:                                                  4
 Number of molecular orbitals:                                                 4

 Number of orbital functions:                                                 23
 Number of independent orbital functions:                                     23

  Parameters for the always stable predictor-corrector (ASPC) method:

  ASPC order: 3

  B(1) =   3.000000
  B(2) =  -3.428571
  B(3) =   1.928571
  B(4) =  -0.571429
  B(5) =   0.071429

 Extrapolation method: ASPC


 SCF WAVEFUNCTION OPTIMIZATION

  Step     Update method      Time    Convergence         Total energy    Change
  ------------------------------------------------------------------------------
     1 Pulay/Diag. 0.50E+00    0.5     0.00073233       -17.1643766177 -1.72E+01
     2 Pulay/Diag. 0.50E+00    1.1     0.00006716       -17.1645204872 -1.44E-04
     3 Pulay/Diag. 0.50E+00    1.1     0.00003656       -17.1643722406  1.48E-04
     4 Pulay/Diag. 0.50E+00    1.1     0.00001889       -17.1644484783 -7.62E-05
     5 Pulay/Diag. 0.50E+00    1.1     0.00000172       -17.1643727528  7.57E-05

  *** SCF run converged in     5 steps ***


  Electronic density on regular grids:         -8.0000016522       -0.0000016522
  Core density on regular grids:                7.9999996804       -0.0000003196
  Total charge density on r-space grids:       -0.0000019718
  Total charge density g-space grids:          -0.0000019718

  Overlap energy of the core charge distribution:               0.00000004598490
  Self energy of the core charge distribution:                -43.83289054591484
  Core Hamiltonian energy:                                     12.82318618339517
  Hartree energy:                                              17.97307930185148
  Exchange-correlation energy:                                 -4.12774773815796

  Total energy:                                               -17.16437275284123

 ENERGY| Total FORCE_EVAL ( QS ) energy (a.u.):              -17.164376683342120


 --------------------------
 OPTIMIZATION STEP:      4
 --------------------------

 Number of electrons:                                                          8
 Number of occupied orbitals:                                                  4
 Number of molecular orbitals:                                                 4

 Number of orbital functions:                                                 23
 Number of independent orbital functions:                                     23

  Parameters for the always stable predictor-corrector (ASPC) method:

  ASPC order: 3

  B(1) =   3.000000
  B(2) =  -3.428571
  B(3) =   1.928571
  B(4) =  -0.571429
  B(5) =   0.071429

 Extrapolation method: ASPC


 SCF WAVEFUNCTION OPTIMIZATION

  Step     Update method      Time    Convergence         Total energy    Change
  ------------------------------------------------------------------------------
     1 Pulay/Diag. 0.50E+00    0.5     0.00015035       -17.1643766806 -1.72E+01
     2 Pulay/Diag. 0.50E+00    1.1     0.00000948       -17.1643926433 -1.60E-05

  *** SCF run converged in     2 steps ***


  Electronic density on regular grids:         -8.0000016522       -0.0000016522
  Core density on regular grids:                7.9999996804       -0.0000003196
  Total charge density on r-space grids:       -0.0000019718
  Total charge density g-space grids:          -0.0000019718

  Overlap energy of the core charge distribution:               0.00000004598490
  Self energy of the core charge distribution:                -43.83289054591484
  Core Hamiltonian energy:                                     12.82315711332945
  Hartree energy:                                              17.97308738875923
  Exchange-correlation energy:                                 -4.12774664546194

  Total energy:                                               -17.16439264330320

 ENERGY| Total FORCE_EVAL ( QS ) energy (a.u.):              -17.164392643303199


 Number of electrons:                                                          8
 Number of occupied orbitals:                                                  4
 Number of molecular orbitals:                                                 4

 Number of orbital functions:                                                 23
 Number of independent orbital functions:                                     23

  Parameters for the always stable predictor-corrector (ASPC) method:

  ASPC order: 3

  B(1) =   3.000000
  B(2) =  -3.428571
  B(3) =   1.928571
  B(4) =  -0.571429
  B(5) =   0.071429

 Extrapolation method: ASPC


 SCF WAVEFUNCTION OPTIMIZATION

  Step     Update method      Time    Convergence         Total energy    Change
  ------------------------------------------------------------------------------
     1 Pulay/Diag. 0.50E+00    0.5     0.00979991       -17.1643911150 -1.72E+01
     2 Pulay/Diag. 0.50E+00    1.1     0.00049919       -17.1654866309 -1.10E-03
     3 Pulay/Diag. 0.50E+00    1.1     0.00034571       -17.1646724077  8.14E-04
     4 Pulay/Diag. 0.50E+00    1.1     0.00024874       -17.1655127411 -8.40E-04
     5 Pulay/Diag. 0.50E+00    1.2     0.00001016       -17.1643728152  1.14E-03
     6 Pulay/Diag. 0.50E+00    1.2     0.00000259       -17.1643949037 -2.21E-05

  *** SCF run converged in     6 steps ***


  Electronic density on regular grids:         -8.0000016550       -0.0000016550
  Core density on regular grids:                7.9999996667       -0.0000003333
  Total charge density on r-space grids:       -0.0000019883
  Total charge density g-space grids:          -0.0000019883

  Overlap energy of the core charge distribution:               0.00000004539466
  Self energy of the core charge distribution:                -43.83289054591484
  Core Hamiltonian energy:                                     12.82201079961986
  Hartree energy:                                              17.97392358413728
  Exchange-correlation energy:                                 -4.12743878692004

  Total energy:                                               -17.16439490368307

[...]

 Number of orbital functions:                                                 23
 Number of independent orbital functions:                                     23

  Parameters for the always stable predictor-corrector (ASPC) method:

  ASPC order: 3

  B(1) =   3.000000
  B(2) =  -3.428571
  B(3) =   1.928571
  B(4) =  -0.571429
  B(5) =   0.071429

 Extrapolation method: ASPC


 SCF WAVEFUNCTION OPTIMIZATION

  Step     Update method      Time    Convergence         Total energy    Change
  ------------------------------------------------------------------------------
     1 Pulay/Diag. 0.50E+00    0.5     0.00319148       -17.1646192320 -1.72E+01
     2 Pulay/Diag. 0.50E+00    1.1     0.00075778       -17.1673913679 -2.77E-03
     3 Pulay/Diag. 0.50E+00    1.1     0.00038755       -17.1640794008  3.31E-03
     4 Pulay/Diag. 0.50E+00    1.1     0.00011983       -17.1649168128 -8.37E-04
     5 Pulay/Diag. 0.50E+00    1.1     0.00001319       -17.1645808666  3.36E-04
     6 Pulay/Diag. 0.50E+00    1.2     0.00000468       -17.1646095132 -2.86E-05

  *** SCF run converged in     6 steps ***


  Electronic density on regular grids:         -8.0000016290       -0.0000016290
  Core density on regular grids:                7.9999992545       -0.0000007455
  Total charge density on r-space grids:       -0.0000023745
  Total charge density g-space grids:          -0.0000023745

  Overlap energy of the core charge distribution:               0.00000004586647
  Self energy of the core charge distribution:                -43.83289054591484
  Core Hamiltonian energy:                                     12.82233091077761
  Hartree energy:                                              17.97355870319785
  Exchange-correlation energy:                                 -4.12760862714417

  Total energy:                                               -17.16460951321707

 ENERGY| Total FORCE_EVAL ( QS ) energy (a.u.):              -17.164620324279021


 Number of electrons:                                                          8
 Number of occupied orbitals:                                                  4
 Number of molecular orbitals:                                                 4

 Number of orbital functions:                                                 23
 Number of independent orbital functions:                                     23

  Parameters for the always stable predictor-corrector (ASPC) method:

  ASPC order: 3

  B(1) =   3.000000
  B(2) =  -3.428571
  B(3) =   1.928571
  B(4) =  -0.571429
  B(5) =   0.071429

 Extrapolation method: ASPC


 SCF WAVEFUNCTION OPTIMIZATION

  Step     Update method      Time    Convergence         Total energy    Change
  ------------------------------------------------------------------------------
     1 Pulay/Diag. 0.50E+00    0.5     0.00422657       -17.1646185435 -1.72E+01
     2 Pulay/Diag. 0.50E+00    1.1     0.00100909       -17.1609327136  3.69E-03
     3 Pulay/Diag. 0.50E+00    1.1     0.00051174       -17.1653437131 -4.41E-03
     4 Pulay/Diag. 0.50E+00    1.1     0.00015800       -17.1642301197  1.11E-03
     5 Pulay/Diag. 0.50E+00    1.2     0.00001749       -17.1646734577 -4.43E-04
     6 Pulay/Diag. 0.50E+00    1.2     0.00000629       -17.1646353170  3.81E-05

  *** SCF run converged in     6 steps ***


  Electronic density on regular grids:         -8.0000016293       -0.0000016293
  Core density on regular grids:                7.9999992550       -0.0000007450
  Total charge density on r-space grids:       -0.0000023743
  Total charge density g-space grids:          -0.0000023743

  Overlap energy of the core charge distribution:               0.00000004561795
  Self energy of the core charge distribution:                -43.83289054591484
  Core Hamiltonian energy:                                     12.82187240192352
  Hartree energy:                                              17.97386472673639
  Exchange-correlation energy:                                 -4.12748194532071

  Total energy:                                               -17.16463531695768

 ENERGY| Total FORCE_EVAL ( QS ) energy (a.u.):              -17.164620470222580


 Number of electrons:                                                          8
 Number of occupied orbitals:                                                  4
 Number of molecular orbitals:                                                 4

 Number of orbital functions:                                                 23
 Number of independent orbital functions:                                     23

  Parameters for the always stable predictor-corrector (ASPC) method:

  ASPC order: 3

  B(1) =   3.000000
  B(2) =  -3.428571
  B(3) =   1.928571
  B(4) =  -0.571429
  B(5) =   0.071429

 Extrapolation method: ASPC


 SCF WAVEFUNCTION OPTIMIZATION

  Step     Update method      Time    Convergence         Total energy    Change
  ------------------------------------------------------------------------------
     1 Pulay/Diag. 0.50E+00    0.5     0.00202918       -17.1646200334 -1.72E+01
     2 Pulay/Diag. 0.50E+00    1.1     0.00048217       -17.1663811986 -1.76E-03
     3 Pulay/Diag. 0.50E+00    1.1     0.00024088       -17.1642738588  2.11E-03
     4 Pulay/Diag. 0.50E+00    1.1     0.00007470       -17.1648064916 -5.33E-04
     5 Pulay/Diag. 0.50E+00    1.1     0.00000826       -17.1645951758  2.11E-04

  *** SCF run converged in     5 steps ***


  Electronic density on regular grids:         -8.0000016294       -0.0000016294
  Core density on regular grids:                7.9999992554       -0.0000007446
  Total charge density on r-space grids:       -0.0000023740
  Total charge density g-space grids:          -0.0000023740

  Overlap energy of the core charge distribution:               0.00000004555422
  Self energy of the core charge distribution:                -43.83289054591484
  Core Hamiltonian energy:                                     12.82179036365332
  Hartree energy:                                              17.97395678767471
  Exchange-correlation energy:                                 -4.12745182674534

  Total energy:                                               -17.16459517577794

 ENERGY| Total FORCE_EVAL ( QS ) energy (a.u.):              -17.164620476604895


 Number of electrons:                                                          8
 Number of occupied orbitals:                                                  4
 Number of molecular orbitals:                                                 4

 Number of orbital functions:                                                 23
 Number of independent orbital functions:                                     23

  Parameters for the always stable predictor-corrector (ASPC) method:

  ASPC order: 3

  B(1) =   3.000000
  B(2) =  -3.428571
  B(3) =   1.928571
  B(4) =  -0.571429
  B(5) =   0.071429

 Extrapolation method: ASPC


 SCF WAVEFUNCTION OPTIMIZATION

  Step     Update method      Time    Convergence         Total energy    Change
  ------------------------------------------------------------------------------
     1 Pulay/Diag. 0.50E+00    0.5     0.00043987       -17.1646204556 -1.72E+01
     2 Pulay/Diag. 0.50E+00    1.1     0.00009659       -17.1642662312  3.54E-04
     3 Pulay/Diag. 0.50E+00    1.1     0.00004548       -17.1646866931 -4.20E-04
     4 Pulay/Diag. 0.50E+00    1.1     0.00001528       -17.1645778057  1.09E-04
     5 Pulay/Diag. 0.50E+00    1.1     0.00000160       -17.1646260706 -4.83E-05

  *** SCF run converged in     5 steps ***


  Electronic density on regular grids:         -8.0000016294       -0.0000016294
  Core density on regular grids:                7.9999992554       -0.0000007446
  Total charge density on r-space grids:       -0.0000023740
  Total charge density g-space grids:          -0.0000023740

  Overlap energy of the core charge distribution:               0.00000004555605
  Self energy of the core charge distribution:                -43.83289054591484
  Core Hamiltonian energy:                                     12.82176933408484
  Hartree energy:                                              17.97394644419256
  Exchange-correlation energy:                                 -4.12745134851572

  Total energy:                                               -17.16462607059711

 ENERGY| Total FORCE_EVAL ( QS ) energy (a.u.):              -17.164620476603666


 *******************************************************************************
 ***                 BRENT   - NUMBER OF ENERGY EVALUATIONS :       4        ***
 *******************************************************************************

 --------  Informations at step =    11 ------------
  Optimization Method        =                   SD
  Total Energy               =       -17.1646204766
  Real energy change         =        -0.0000000529
  Decrease in energy         =                  YES
  Used time                  =               49.893

  Convergence check :
  Max. step size             =         0.0003393150
  Conv. limit for step size  =         0.0010000000
  Convergence in step size   =                  YES
  RMS step size              =         0.0001493298
  Conv. limit for RMS step   =         0.0010000000
  Convergence in RMS step    =                  YES
  Max. gradient              =         0.0001787448
  Conv. limit for gradients  =         0.0010000000
  Conv. in gradients         =                  YES
  RMS gradient               =         0.0000786642
  Conv. limit for RMS grad.  =         0.0010000000
  Conv. in RMS gradients     =                  YES
 ---------------------------------------------------

 *******************************************************************************
 ***                    GEOMETRY OPTIMIZATION COMPLETED                      ***
 *******************************************************************************

                    Reevaluating energy at the minimum

 Number of electrons:                                                          8
 Number of occupied orbitals:                                                  4
 Number of molecular orbitals:                                                 4

 Number of orbital functions:                                                 23
 Number of independent orbital functions:                                     23

  Parameters for the always stable predictor-corrector (ASPC) method:

  ASPC order: 3

  B(1) =   3.000000
  B(2) =  -3.428571
  B(3) =   1.928571
  B(4) =  -0.571429
  B(5) =   0.071429

 Extrapolation method: ASPC


 SCF WAVEFUNCTION OPTIMIZATION

  Step     Update method      Time    Convergence         Total energy    Change
  ------------------------------------------------------------------------------
     1 Pulay/Diag. 0.50E+00    0.5     0.00005615       -17.1646204762 -1.72E+01
     2 Pulay/Diag. 0.50E+00    1.0     0.00000563       -17.1646347711 -1.43E-05

  *** SCF run converged in     2 steps ***


  Electronic density on regular grids:         -8.0000016293       -0.0000016293
  Core density on regular grids:                7.9999992554       -0.0000007446
  Total charge density on r-space grids:       -0.0000023739
  Total charge density g-space grids:          -0.0000023739

  Overlap energy of the core charge distribution:               0.00000004555422
  Self energy of the core charge distribution:                -43.83289054591484
  Core Hamiltonian energy:                                     12.82175605770555
  Hartree energy:                                              17.97395116120845
  Exchange-correlation energy:                                 -4.12745148966141

  Total energy:                                               -17.16463477110803

 ENERGY| Total FORCE_EVAL ( QS ) energy (a.u.):              -17.164634771108034


 -------------------------------------------------------------------------------
 -                                                                             -
 -                                DBCSR STATISTICS                             -
 -                                                                             -
 -------------------------------------------------------------------------------
 COUNTER                                      CPU                  GPU      GPU%
 number of processed stacks                  4732                    0       0.0
 mutmuls inhomo. stacks                         0                    0       0.0
 matmuls   5 x    5 x    4                   2379                    0       0.0
 matmuls   5 x    4 x    5                   1560                    0       0.0
 matmuls  13 x    5 x    4                    793                    0       0.0
 matmuls   5 x   13 x    4                    793                    0       0.0
 matmuls  13 x    4 x    5                    780                    0       0.0
 matmuls   5 x    4 x   13                    780                    0       0.0
 matmuls  13 x   13 x    4                    793                    0       0.0
 matmuls  13 x    4 x   13                    390                    0       0.0
 matmuls total                               8268                    0       0.0
 flops total                              4023136                    0       0.0
 -------------------------------------------------------------------------------

 -------------------------------------------------------------------------------
 -                                                                             -
 -                           R E F E R E N C E S                               -
 -                                                                             -
 -------------------------------------------------------------------------------
 
 CP2K version 2.5 (Development Version), the CP2K developers group (2013).
 CP2K is freely available from http://www.cp2k.org/ .

 Krack, M. 
 THEORETICAL CHEMISTRY ACCOUNTS, 114 (1-3), 145-152 (2005). 
 Pseudopotentials for H to Kr optimized for gradient-corrected
 exchange-correlation functionals.
 http://dx.doi.org/10.1007/s00214-005-0655-y


 VandeVondele, J; Krack, M; Mohamed, F; Parrinello, M; Chassaing, T;
 Hutter, J. COMPUTER PHYSICS COMMUNICATIONS, 167 (2), 103-128 (2005). 
 QUICKSTEP: Fast and accurate density functional calculations using a
 mixed Gaussian and plane waves approach.
 http://dx.doi.org/10.1016/j.cpc.2004.12.014


 Frigo, M; Johnson, SG. 
 PROCEEDINGS OF THE IEEE, 93 (2), 216-231 (2005). 
 The design and implementation of FFTW3.
 http://dx.doi.org/10.1109/JPROC.2004.840301


 Kolafa, J. 
 JOURNAL OF COMPUTATIONAL CHEMISTRY, 25 (3), 335-342 (2004). 
 Time-reversible always stable predictor-corrector method for molecular dynamics of polarizable molecules.
 http://dx.doi.org/10.1002/jcc.10385


 Hartwigsen, C; Goedecker, S; Hutter, J. 
 PHYSICAL REVIEW B, 58 (7), 3641-3662 (1998). 
 Relativistic separable dual-space Gaussian pseudopotentials from H to Rn.
 http://dx.doi.org/10.1103/PhysRevB.58.3641


 Lippert, G; Hutter, J; Parrinello, M. 
 MOLECULAR PHYSICS, 92 (3), 477-487 (1997). 
 A hybrid Gaussian and plane wave density functional scheme.
 http://dx.doi.org/10.1080/002689797170220


 Goedecker, S; Teter, M; Hutter, J. 
 PHYSICAL REVIEW B, 54 (3), 1703-1710 (1996). 
 Separable dual-space Gaussian pseudopotentials.
 http://dx.doi.org/10.1103/PhysRevB.54.1703


 -------------------------------------------------------------------------------
 -                                                                             -
 -                                T I M I N G                                  -
 -                                                                             -
 -------------------------------------------------------------------------------
 SUBROUTINE                       CALLS  ASD         SELF TIME        TOTAL TIME
                                              AVERAGE  MAXIMUM  AVERAGE  MAXIMUM
 CP2K                                 1  1.0    0.024    0.024  819.011  819.011
 cp_cg_main                           1  4.0    0.002    0.002  818.002  818.002
 geoopt_cg                            1  3.0    0.000    0.000  818.002  818.002
 cp_geo_opt                           1  2.0    0.000    0.000  818.002  818.002
 cp_eval_at                         101  8.5    0.013    0.013  817.975  817.975
 qs_energies_scf                    101 10.1    0.009    0.009  783.829  783.829
 linmin_gold                         11  6.0    0.000    0.000  728.224  728.224
 cg_linmin                           11  5.0    0.000    0.000  728.224  728.224
 scf_env_do_scf                     101 11.1    0.008    0.008  682.818  682.818
 scf_env_do_scf_inner_loop          630 12.2    0.090    0.090  682.808  682.808
 qs_forces                           63  9.3    0.002    0.002  553.288  553.288
 fft_wrap_pw1pw2                   7750 16.6    0.185    0.185  482.816  482.816
 cg_dbrent                           11  7.0    0.000    0.000  466.442  466.442
 cg_deval1d                          52  8.0    0.001    0.001  466.441  466.441
 fft_wrap_pw1pw2_100               3478 17.0   20.045   20.045  438.244  438.244
 qs_ks_build_kohn_sham_matrix       693 14.0    0.109    0.109  375.842  375.842
 qs_ks_update_qs_env                630 13.2    0.009    0.009  341.883  341.883
 fft3d_s                           7751 18.6  303.609  303.609  303.670  303.670
 cg_eval1d                           37  8.0    0.000    0.000  261.782  261.782
 cg_mnbrak                           11  7.0    0.000    0.000  261.782  261.782
 qs_rho_update_rho                  731 13.4    0.008    0.008  235.683  235.683
 calculate_rho_elec                 731 14.4   11.532   11.532  235.675  235.675
 density_rs2pw                      731 15.4    0.030    0.030  221.952  221.952
 gspace_mixing                      529 13.3    5.758    5.758  136.355  136.355
 sum_up_and_integrate               693 15.0    6.735    6.735  124.648  124.648
 integrate_v_rspace                 693 16.0    3.302    3.302  117.909  117.909
 potential_pw2rs                    693 17.0    0.476    0.476  114.482  114.482
 qs_vxc_create                      693 15.0    0.015    0.015  114.257  114.257
 xc_vxc_pw_create                   693 16.0    7.562    7.562  114.242  114.242
 xc_rho_set_and_dset_create         693 17.0    0.034    0.034  106.677  106.677
 xc_functional_eval                 693 18.0  103.681  103.681  103.681  103.681
 init_scf_run                       101 11.1    0.012    0.012   86.429   86.429
 scf_env_initial_rho_setup          101 12.1    0.004    0.004   86.386   86.386
 pw_scatter_s                      4032 18.7   85.025   85.025   85.025   85.025
 pw_gather_s                       3718 18.6   72.024   72.024   72.024   72.024
 pulay_mixing                       529 14.3   62.725   62.725   62.770   62.770
 mixing_init                        101 13.1   53.207   53.207   53.207   53.207
 fft_wrap_pw1pw2_40                1424 18.1    1.544    1.544   38.573   38.573
 pw_poisson_solve                   693 15.0   23.163   23.163   34.507   34.507
 qs_ks_update_qs_env_forces          63 10.3    0.000    0.000   33.992   33.992
 wfi_extrapolate                    101 13.1    0.011    0.011   32.792   32.792
 pw_copy                           5544 17.1   24.670   24.670   24.670   24.670
 -------------------------------------------------------------------------------

  **** **** ******  **  PROGRAM ENDED AT                 2013-12-03 19:30:01.571
 ***** ** ***  *** **   PROGRAM RAN ON                          spring.kcl.ac.uk
 **    ****   ******    PROGRAM RAN BY                                      tong
 ***** **    ** ** **   PROGRAM PROCESS ID                                 24417
  **** **  *******  **  PROGRAM STOPPED IN /home/tong/tutorials/geometry_optimis
                                           ation/example_1
