 vasp.6.1.1 19Jun20 (build Oct 26 2020 17:25:13) gamma-only                     
  
 executed on             LinuxIFC date 2021.02.19  02:41:59
 running on   48 total cores
 distrk:  each k-point on   48 cores,    1 groups
 distr:  one band on NCORE=  12 cores,    4 groups


--------------------------------------------------------------------------------------------------------


 INCAR:
 POTCAR:    PAW_PBE Cd 06Sep2000                  
 POTCAR:    PAW_PBE Te 08Apr2002                  
 POTCAR:    PAW_PBE Cd 06Sep2000                  
   VRHFIN =Cd : s2 d10                                                                              
   LEXCH  = PE                                                                                      
   EATOM  =  1293.1815 eV,   95.0462 Ry                                                             
                                                                                                    
   TITEL  = PAW_PBE Cd 06Sep2000                                                                    
   LULTRA =        F    use ultrasoft PP ?                                                          
   IUNSCR =        1    unscreen: 0-lin 1-nonlin 2-no                                               
   RPACOR =    2.000    partial core radius                                                         
   POMASS =  112.411; ZVAL   =   12.000    mass and valenz                                          
   RCORE  =    2.300    outmost cutoff radius                                                       
   RWIGS  =    2.980; RWIGS  =    1.577    wigner-seitz radius (au A)                               
   ENMAX  =  274.336; ENMIN  =  205.752 eV                                                          
   RCLOC  =    2.054    cutoff for local pot                                                        
   LCOR   =        T    correct aug charges                                                         
   LPAW   =        T    paw PP                                                                      
   EAUG   =  456.106                                                                                
   DEXC   =    0.000                                                                                
   RMAX   =    2.358    core radius for proj-oper                                                   
   RAUG   =    1.300    factor for augmentation sphere                                              
   RDEP   =    2.450    radius for radial grids                                                     
   RDEPT  =    1.955    core radius for aug-charge                                                  
                                                                                                    
   Atomic configuration                                                                             
   12 entries                                                                                       
     n  l   j            E        occ.                                                              
     1  0  0.50    -26519.7817   2.0000                                                             
     2  0  0.50     -3936.9612   2.0000                                                             
     2  1  1.50     -3532.2230   6.0000                                                             
     3  0  0.50      -733.7908   2.0000                                                             
     3  1  1.50      -601.0792   6.0000                                                             
     3  2  2.50      -393.5307  10.0000                                                             
     4  0  0.50      -105.8977   2.0000                                                             
     4  1  1.50       -66.9488   6.0000                                                             
     4  2  2.50       -11.7331  10.0000                                                             
     5  0  0.50        -5.6592   2.0000                                                             
     5  1  0.50        -1.3606   0.0000                                                             
     4  3  2.50        -1.3606   0.0000                                                             
   Description                                                                                      
     l       E           TYP  RCUT    TYP  RCUT                                                     
     2    -11.7331479     23  2.300                                                                 
     2    -13.0937305     23  2.300                                                                 
     0     -5.6591502     23  2.300                                                                 
     0     -1.5561433     23  2.300                                                                 
     1     -2.7211652     23  2.300                                                                 
     1      8.3548275     23  2.300                                                                 
  local pseudopotential read in
  partial core-charges read in
  partial kinetic energy density read in
  atomic valenz-charges read in
  non local Contribution for L=           2  read in
    real space projection operators read in
  non local Contribution for L=           2  read in
    real space projection operators read in
  non local Contribution for L=           0  read in
    real space projection operators read in
  non local Contribution for L=           0  read in
    real space projection operators read in
  non local Contribution for L=           1  read in
    real space projection operators read in
  non local Contribution for L=           1  read in
    real space projection operators read in
    PAW grid and wavefunctions read in
 
   number of l-projection  operators is LMAX  =           6
   number of lm-projection operators is LMMAX =          18
 
 POTCAR:    PAW_PBE Te 08Apr2002                  
   VRHFIN =Te: s2p4                                                                                 
   LEXCH  = PE                                                                                      
   EATOM  =   223.2721 eV,   16.4100 Ry                                                             
                                                                                                    
   TITEL  = PAW_PBE Te 08Apr2002                                                                    
   LULTRA =        F    use ultrasoft PP ?                                                          
   IUNSCR =        1    unscreen: 0-lin 1-nonlin 2-no                                               
   RPACOR =    2.200    partial core radius                                                         
   POMASS =  127.600; ZVAL   =    6.000    mass and valenz                                          
   RCORE  =    2.300    outmost cutoff radius                                                       
   RWIGS  =    2.900; RWIGS  =    1.535    wigner-seitz radius (au A)                               
   ENMAX  =  174.982; ENMIN  =  131.236 eV                                                          
   ICORE  =        3    local potential                                                             
   LCOR   =        T    correct aug charges                                                         
   LPAW   =        T    paw PP                                                                      
   EAUG   =  368.792                                                                                
   DEXC   =    0.000                                                                                
   RMAX   =    2.345    core radius for proj-oper                                                   
   RAUG   =    1.300    factor for augmentation sphere                                              
   RDEP   =    2.397    radius for radial grids                                                     
   RDEPT  =    2.174    core radius for aug-charge                                                  
                                                                                                    
   Atomic configuration                                                                             
   13 entries                                                                                       
     n  l   j            E        occ.                                                              
     1  0  0.50    -31621.2075   2.0000                                                             
     2  0  0.50     -4848.7941   2.0000                                                             
     2  1  1.50     -4352.1960   6.0000                                                             
     3  0  0.50      -964.9612   2.0000                                                             
     3  1  1.50      -803.6179   6.0000                                                             
     3  2  2.50      -559.8710  10.0000                                                             
     4  0  0.50      -164.3522   2.0000                                                             
     4  1  1.50      -114.3756   6.0000                                                             
     4  2  2.50       -41.6483  10.0000                                                             
     5  0  0.50       -15.1072   2.0000                                                             
     5  1  0.50        -5.9526   4.0000                                                             
     5  2  1.50        -5.4423   0.0000                                                             
     4  3  2.50        -5.4423   0.0000                                                             
   Description                                                                                      
     l       E           TYP  RCUT    TYP  RCUT                                                     
     0    -15.1072389     23  2.300                                                                 
     0    -16.4678215     23  2.300                                                                 
     1     -5.9526306     23  2.300                                                                 
     1     -2.4873968     23  2.300                                                                 
     2     -5.4423304     23  2.300                                                                 
     3     -1.3605826     23  2.300                                                                 
  local pseudopotential read in
  partial core-charges read in
  partial kinetic energy density read in
  atomic valenz-charges read in
  non local Contribution for L=           0  read in
    real space projection operators read in
  non local Contribution for L=           0  read in
    real space projection operators read in
  non local Contribution for L=           1  read in
    real space projection operators read in
  non local Contribution for L=           1  read in
    real space projection operators read in
  non local Contribution for L=           2  read in
    real space projection operators read in
    PAW grid and wavefunctions read in
 
   number of l-projection  operators is LMAX  =           5
   number of lm-projection operators is LMMAX =          13
 
 Optimization of the real space projectors (new method)

 maximal supplied QI-value         = 16.25
 optimisation between [QCUT,QGAM] = [ 10.73, 21.61] = [ 32.22,130.83] Ry 
 Optimized for a Real-space Cutoff    1.34 Angstroem

   l    n(q)    QCUT    max X(q) W(low)/X(q) W(high)/X(q)  e(spline) 
   2      8    10.726    73.106    0.62E-03    0.58E-03    0.13E-06
   2      8    10.726    71.731    0.63E-03    0.59E-03    0.13E-06
   0      9    10.726   146.509    0.37E-03    0.31E-03    0.93E-07
   0      9    10.726    95.017    0.35E-03    0.30E-03    0.90E-07
   1      8    10.726    36.165    0.40E-03    0.62E-04    0.20E-06
   1      8    10.726    31.530    0.37E-03    0.46E-04    0.19E-06
 Optimization of the real space projectors (new method)

 maximal supplied QI-value         = 16.25
 optimisation between [QCUT,QGAM] = [ 10.73, 21.61] = [ 32.22,130.83] Ry 
 Optimized for a Real-space Cutoff    1.26 Angstroem

   l    n(q)    QCUT    max X(q) W(low)/X(q) W(high)/X(q)  e(spline) 
   0      8    10.726   224.858    0.42E-03    0.29E-03    0.13E-06
   0      8    10.726   205.313    0.42E-03    0.29E-03    0.14E-06
   1      8    10.726   119.695    0.28E-03    0.65E-03    0.18E-06
   1      8    10.726    84.282    0.28E-03    0.64E-03    0.18E-06
   2      7    10.726     5.599    0.26E-03    0.18E-03    0.37E-07
  PAW_PBE Cd 06Sep2000                  :
 energy of atom  1       EATOM=-1293.1815
 kinetic energy error for atom=    0.0084 (will be added to EATOM!!)
  PAW_PBE Te 08Apr2002                  :
 energy of atom  2       EATOM= -223.2721
 kinetic energy error for atom=    0.0008 (will be added to EATOM!!)
 
 
 POSCAR: 10.0%_BDM_Distortion_vac_1_Cd[0. 0. 0.]_
  positions in direct lattice
  velocities in cartesian coordinates
 exchange correlation table for  LEXCH =        8
   RHO(1)=    0.500       N(1)  =     2000
   RHO(2)=  100.500       N(2)  =     4000
 


--------------------------------------------------------------------------------------------------------


 ion  position               nearest neighbor table
   1  0.002  0.998  0.499-  43 2.84  32 2.84  62 2.84  53 2.85
   2  0.002  0.497  0.999-  40 2.84  35 2.84  61 2.84  54 2.85
   3  0.001  0.497  0.501-  41 2.84  60 2.84  34 2.84  55 2.84
   4  0.502  0.998  0.999-  59 2.84  46 2.84  37 2.84  48 2.84
   5  0.501  0.997  0.499-  36 2.84  49 2.84  58 2.84  47 2.84
   6  0.501  0.497  0.999-  39 2.84  44 2.84  57 2.84  50 2.84
   7  0.502  0.498  0.499-  38 2.83  45 2.84  51 2.84  56 2.84
   8  0.993  0.244  0.245-  52 2.78  60 2.85  40 2.87  32 2.88
   9  0.010  0.244  0.755-  33 2.79  41 2.85  61 2.88  53 2.88
  10  0.007  0.751  0.245-  42 2.79  34 2.86  54 2.87  62 2.87
  11  0.994  0.753  0.755-  63 2.79  55 2.85  43 2.87  35 2.87
  12  0.499  0.246  0.248-  48 2.83  44 2.84  56 2.84  36 2.84
  13  0.502  0.246  0.751-  37 2.84  57 2.84  49 2.84  45 2.84
  14  0.502  0.750  0.247-  46 2.83  50 2.84  58 2.84  38 2.85
  15  0.502  0.751  0.751-  59 2.83  47 2.83  39 2.84  51 2.85
  16  0.245  0.994  0.245-  42 2.80  32 2.85  48 2.86  58 2.87
  17  0.244  0.004  0.754-  33 2.79  43 2.86  49 2.86  59 2.87
  18  0.251  0.498  0.248-  40 2.83  34 2.84  50 2.84  56 2.84
  19  0.253  0.499  0.751-  35 2.83  57 2.84  51 2.84  41 2.84
  20  0.758  0.004  0.245-  52 2.79  62 2.85  36 2.86  46 2.87
  21  0.759  0.996  0.754-  63 2.81  53 2.84  37 2.86  47 2.87
  22  0.751  0.497  0.250-  54 2.83  60 2.84  44 2.84  38 2.84
  23  0.752  0.498  0.751-  61 2.83  55 2.84  39 2.84  45 2.85
  24  0.244  0.242  0.995-  33 2.80  40 2.85  57 2.87  48 2.87
  25  0.252  0.247  0.499-  32 2.83  41 2.84  56 2.84  49 2.84
  26  0.245  0.753  0.002-  42 2.80  35 2.85  59 2.86  50 2.87
  27  0.251  0.747  0.500-  43 2.83  34 2.84  58 2.84  51 2.84
  28  0.758  0.245  0.005-  52 2.80  61 2.85  44 2.86  37 2.87
  29  0.751  0.246  0.501-  53 2.83  60 2.84  36 2.84  45 2.84
  30  0.757  0.752  0.997-  63 2.80  54 2.85  46 2.86  39 2.87
  31  0.752  0.750  0.498-  62 2.82  55 2.84  47 2.84  38 2.85
  32  0.126  0.124  0.373-  25 2.83   1 2.84  16 2.85   8 2.88
  33  0.116  0.112  0.884-   9 2.79  17 2.79  24 2.80
  34  0.126  0.622  0.374-  27 2.84  18 2.84   3 2.84  10 2.86
  35  0.126  0.624  0.874-  19 2.83   2 2.84  26 2.85  11 2.87
  36  0.626  0.122  0.374-   5 2.84  12 2.84  29 2.84  20 2.86
  37  0.629  0.123  0.875-  13 2.84   4 2.84  21 2.86  28 2.87
  38  0.626  0.624  0.374-   7 2.83  22 2.84  14 2.85  31 2.85
  39  0.627  0.624  0.876-   6 2.84  15 2.84  23 2.84  30 2.87
  40  0.126  0.371  0.125-  18 2.83   2 2.84  24 2.85   8 2.87
  41  0.128  0.373  0.625-  25 2.84   3 2.84  19 2.84   9 2.85
  42  0.117  0.880  0.116-  10 2.79  26 2.80  16 2.80
  43  0.126  0.872  0.625-  27 2.83   1 2.84  17 2.86  11 2.87
  44  0.626  0.371  0.125-  12 2.84  22 2.84   6 2.84  28 2.86
  45  0.626  0.373  0.626-   7 2.84  13 2.84  29 2.84  23 2.85
  46  0.629  0.874  0.125-  14 2.83   4 2.84  30 2.86  20 2.87
  47  0.629  0.875  0.626-  15 2.83  31 2.84   5 2.84  21 2.87
  48  0.374  0.121  0.124-  12 2.83   4 2.84  16 2.86  24 2.87
  49  0.376  0.122  0.625-  13 2.84   5 2.84  25 2.84  17 2.86
  50  0.376  0.624  0.123-  18 2.84  14 2.84   6 2.84  26 2.87
  51  0.378  0.624  0.625-   7 2.84  19 2.84  27 2.84  15 2.85
  52  0.886  0.114  0.116-   8 2.78  20 2.79  28 2.80
  53  0.879  0.124  0.626-  29 2.83  21 2.84   1 2.85   9 2.88
  54  0.876  0.622  0.125-  22 2.83   2 2.85  30 2.85  10 2.87
  55  0.876  0.624  0.625-  23 2.84  31 2.84   3 2.84  11 2.85
  56  0.377  0.373  0.374-   7 2.84  12 2.84  25 2.84  18 2.84
  57  0.375  0.371  0.876-  19 2.84  13 2.84   6 2.84  24 2.87
  58  0.375  0.872  0.374-  14 2.84  27 2.84   5 2.84  16 2.87
  59  0.374  0.875  0.875-  15 2.83   4 2.84  26 2.86  17 2.87
  60  0.875  0.372  0.376-  29 2.84  22 2.84   3 2.84   8 2.85
  61  0.877  0.372  0.874-  23 2.83   2 2.84  28 2.85   9 2.88
  62  0.877  0.873  0.373-  31 2.82   1 2.84  20 2.85  10 2.87
  63  0.885  0.881  0.885-  11 2.79  30 2.80  21 2.81
 

IMPORTANT INFORMATION: All symmetrisations will be switched off!
NOSYMM: (Re-)initialisation of all symmetry stuff for point group C_1.


----------------------------------------------------------------------------------------

                                     Primitive cell                                     

  volume of cell :    2241.2856

  direct lattice vectors                    reciprocal lattice vectors
    13.086768000  0.000000000  0.000000000     0.076413061  0.000000000  0.000000000
     0.000000000 13.086768000  0.000000000     0.000000000  0.076413061  0.000000000
     0.000000000  0.000000000 13.086768000     0.000000000  0.000000000  0.076413061

  length of vectors
    13.086768000 13.086768000 13.086768000     0.076413061  0.076413061  0.076413061

  position of ions in fractional coordinates (direct lattice)
     0.002364576  0.997736289  0.498929688
     0.002007468  0.497460739  0.999200881
     0.001278030  0.497439417  0.500651827
     0.502238935  0.997681205  0.998848678
     0.501205051  0.996915703  0.499216520
     0.501333192  0.497381428  0.999241741
     0.501960616  0.497879920  0.499444438
     0.993204231  0.244140816  0.245493660
     0.010069966  0.244233557  0.754587395
     0.006587313  0.751331842  0.245033661
     0.994312134  0.752913067  0.754548287
     0.499459485  0.245764282  0.248260697
     0.501603666  0.246067843  0.750741008
     0.501989565  0.749823866  0.247342998
     0.502081105  0.751430813  0.751383717
     0.244576425  0.993635391  0.245044002
     0.243856412  0.003513640  0.753514685
     0.250920669  0.497782266  0.247636879
     0.252863256  0.498963478  0.750830809
     0.757617935  0.004284142  0.245249006
     0.759097743  0.995669511  0.754326889
     0.750844695  0.497224274  0.249644721
     0.751925105  0.497947536  0.750875334
     0.244342222  0.242477797  0.995145155
     0.251591950  0.247249939  0.498837187
     0.245307323  0.752758293  0.002446383
     0.250675827  0.747178322  0.500252055
     0.757542036  0.244532608  0.004634823
     0.750978300  0.246294561  0.500971056
     0.757361713  0.752047665  0.996810235
     0.752412088  0.749634504  0.498479934
     0.126037186  0.123889746  0.372871329
     0.115681320  0.112411193  0.884427759
     0.126135283  0.622256268  0.374211314
     0.126078221  0.623862502  0.873813630
     0.626131099  0.122173259  0.373953012
     0.629105293  0.122947036  0.875422785
     0.625730951  0.623884301  0.374267770
     0.626777604  0.624374874  0.875681900
     0.125805512  0.371156038  0.124929298
     0.128407644  0.373368044  0.625047251
     0.116547540  0.880115563  0.115989060
     0.125859829  0.871889037  0.625347758
     0.625832747  0.371269162  0.124779203
     0.625923082  0.372566285  0.625689771
     0.628682857  0.874343206  0.124594622
     0.628601433  0.874669164  0.626023940
     0.374250441  0.121047265  0.123555943
     0.375879981  0.121676484  0.625137256
     0.375724398  0.624361685  0.123139741
     0.378323543  0.623865621  0.625433856
     0.885763549  0.114360537  0.115555567
     0.878525536  0.123690636  0.625750774
     0.876052267  0.622163198  0.125230616
     0.875605629  0.623746866  0.625011596
     0.376603770  0.373120550  0.373792820
     0.375445333  0.370773303  0.875555051
     0.374907977  0.872466533  0.373640944
     0.374028623  0.874637585  0.874628882
     0.875122246  0.372362344  0.375857679
     0.876825042  0.371632610  0.874178117
     0.876560680  0.873367440  0.372895026
     0.885485354  0.881463946  0.884645384

  ion indices of the primitive-cell ions
   primitive index   ion index
                 1           1
                 2           2
                 3           3
                 4           4
                 5           5
                 6           6
                 7           7
                 8           8
                 9           9
                10          10
                11          11
                12          12
                13          13
                14          14
                15          15
                16          16
                17          17
                18          18
                19          19
                20          20
                21          21
                22          22
                23          23
                24          24
                25          25
                26          26
                27          27
                28          28
                29          29
                30          30
                31          31
                32          32
                33          33
                34          34
                35          35
                36          36
                37          37
                38          38
                39          39
                40          40
                41          41
                42          42
                43          43
                44          44
                45          45
                46          46
                47          47
                48          48
                49          49
                50          50
                51          51
                52          52
                53          53
                54          54
                55          55
                56          56
                57          57
                58          58
                59          59
                60          60
                61          61
                62          62
                63          63

----------------------------------------------------------------------------------------

 
 
 KPOINTS: Kpoints from DefectsWithTheBoys.vasp_gam

Automatic generation of k-mesh.
Space group operators:
 irot       det(A)        alpha          n_x          n_y          n_z        tau_x        tau_y        tau_z
    1     1.000000     0.000000     1.000000     0.000000     0.000000     0.000000     0.000000     0.000000
 
 Subroutine IBZKPT returns following result:
 ===========================================
 
 Found      1 irreducible k-points:
 
 Following reciprocal coordinates:
            Coordinates               Weight
  0.000000  0.000000  0.000000      1.000000
 
 Following cartesian coordinates:
            Coordinates               Weight
  0.000000  0.000000  0.000000      1.000000
 
 
 Subroutine IBZKPT_HF returns following result:
 ==============================================
 
 Found      1 k-points in 1st BZ
 the following      1 k-points will be used (e.g. in the exchange kernel)
 Following reciprocal coordinates:   # in IRBZ
  0.000000  0.000000  0.000000    1.00000000   1 t-inv F


--------------------------------------------------------------------------------------------------------




 Dimension of arrays:
   k-points           NKPTS =      1   k-points in BZ     NKDIM =      1   number of bands    NBANDS=    340
   number of dos      NEDOS =   2000   number of ions     NIONS =     63
   non local maximal  LDIM  =      6   non local SUM 2l+1 LMDIM =     18
   total plane-waves  NPLWV = 884736
   max r-space proj   IRMAX =   4034   max aug-charges    IRDMAX=  23156
   dimension x,y,z NGX =    96 NGY =   96 NGZ =   96
   dimension x,y,z NGXF=   192 NGYF=  192 NGZF=  192
   support grid    NGXF=   192 NGYF=  192 NGZF=  192
   ions per type =              31  32
   NGX,Y,Z   is equivalent  to a cutoff of  12.20, 12.20, 12.20 a.u.
   NGXF,Y,Z  is equivalent  to a cutoff of  24.39, 24.39, 24.39 a.u.

 SYSTEM =  unknown system                          
 POSCAR =  10.0%_BDM_Distortion_vac_1_Cd[0. 0. 0.]_

 Startparameter for this run:
   NWRITE =      2    write-flag & timer
   PREC   = accura    normal or accurate (medium, high low for compatibility)
   ISTART =      0    job   : 0-new  1-cont  2-samecut
   ICHARG =      1    charge: 1-file 2-atom 10-const
   ISPIN  =      1    spin polarized calculation?
   LNONCOLLINEAR =      F non collinear calculations
   LSORBIT =      F    spin-orbit coupling
   INIWAV =      1    electr: 0-lowe 1-rand  2-diag
   LASPH  =      T    aspherical Exc in radial PAW
   METAGGA=      F    non-selfconsistent MetaGGA calc.

 Electronic Relaxation 1
   ENCUT  =  450.0 eV  33.07 Ry    5.75 a.u.  22.64 22.64 22.64*2*pi/ulx,y,z
   ENINI  =  450.0     initial cutoff
   ENAUG  =  456.1 eV  augmentation charge cutoff
   NELM   =    100;   NELMIN=  2; NELMDL=  0     # of ELM steps 
   EDIFF  = 0.5E-05   stopping-criterion for ELM
   LREAL  =      T    real-space projection
   NLSPLINE    = F    spline interpolate recip. space projectors
   LCOMPAT=      F    compatible to vasp.4.4
   GGA_COMPAT  = T    GGA compatible to vasp.4.4-vasp.4.6
   LMAXPAW     = -100 max onsite density
   LMAXMIX     =    2 max onsite mixed and CHGCAR
   VOSKOWN=      0    Vosko Wilk Nusair interpolation
   ROPT   =   -0.00100  -0.00100
 Ionic relaxation
   EDIFFG = -.1E-01   stopping-criterion for IOM
   NSW    =    300    number of steps for IOM
   NBLOCK =      1;   KBLOCK =    300    inner block; outer block 
   IBRION =      2    ionic relax: 0-MD 1-quasi-New 2-CG
   NFREE  =      1    steps in history (QN), initial steepest desc. (CG)
   ISIF   =      2    stress and relaxation
   IWAVPR =     11    prediction:  0-non 1-charg 2-wave 3-comb
   ISYM   =      0    0-nonsym 1-usesym 2-fastsym
   LCORR  =      T    Harris-Foulkes like correction to forces

   POTIM  = 0.2000    time-step for ionic-motion
   TEIN   =    0.0    initial temperature
   TEBEG  =    0.0;   TEEND  =   0.0 temperature during run
   SMASS  =  -3.00    Nose mass-parameter (am)
   estimated Nose-frequenzy (Omega)   =  0.10E-29 period in steps = 0.31E+47 mass=  -0.391E-26a.u.
   SCALEE = 1.0000    scale energy and forces
   NPACO  =    256;   APACO  = 16.0  distance and # of slots for P.C.
   PSTRESS=    0.0 pullay stress

  Mass of Ions in am
   POMASS = 112.41127.60
  Ionic Valenz
   ZVAL   =  12.00  6.00
  Atomic Wigner-Seitz radii
   RWIGS  =  -1.00 -1.00
  virtual crystal weights 
   VCA    =   1.00  1.00
   NELECT =     564.0000    total number of electrons
   NUPDOWN=       0.0000    fix difference up-down

 DOS related values:
   EMIN   =  10.00;   EMAX   =-10.00  energy-range for DOS
   EFERMI =   0.00
   ISMEAR =     0;   SIGMA  =   0.05  broadening in eV -4-tet -1-fermi 0-gaus

 Electronic relaxation 2 (details)
   IALGO  =     38    algorithm
   LDIAG  =      T    sub-space diagonalisation (order eigenvalues)
   LSUBROT=      F    optimize rotation matrix (better conditioning)
   TURBO    =      0    0=normal 1=particle mesh
   IRESTART =      0    0=no restart 2=restart with 2 vectors
   NREBOOT  =      0    no. of reboots
   NMIN     =      0    reboot dimension
   EREF     =   0.00    reference energy to select bands
   IMIX   =      1    mixing-type and parameters
     AMIX     =   0.40;   BMIX     =  1.00
     AMIX_MAG =   1.60;   BMIX_MAG =  1.00
     AMIN     =   0.10
     WC   =   100.;   INIMIX=   1;  MIXPRE=   1;  MAXMIX= -45

 Intra band minimization:
   WEIMIN = 0.0010     energy-eigenvalue tresh-hold
   EBREAK =  0.37E-08  absolut break condition
   DEPER  =   0.30     relativ break condition  

   TIME   =   0.40     timestep for ELM

  volume/ion in A,a.u.               =      35.58       240.08
  Fermi-wavevector in a.u.,A,eV,Ry     =   1.033559  1.953144 14.534357  1.068245
  Thomas-Fermi vector in A             =   2.167812
 
 Write flags
   LWAVE        =      F    write WAVECAR
   LDOWNSAMPLE  =      F    k-point downsampling of WAVECAR
   LCHARG       =      T    write CHGCAR
   LVTOT        =      F    write LOCPOT, total local potential
   LVHAR        =      F    write LOCPOT, Hartree potential only
   LELF         =      F    write electronic localiz. function (ELF)
   LORBIT       =     11    0 simple, 1 ext, 2 COOP (PROOUT), +10 PAW based schemes


 Dipole corrections
   LMONO  =      F    monopole corrections only (constant potential shift)
   LDIPOL =      F    correct potential (dipole corrections)
   IDIPOL =      0    1-x, 2-y, 3-z, 4-all directions 
   EPSILON=  1.0000000 bulk dielectric constant

 Exchange correlation treatment:
   GGA     =    --    GGA type
   LEXCH   =     8    internal setting for exchange type
   VOSKOWN=      0    Vosko Wilk Nusair interpolation
   EXXOEP  =     0    0=HF, 1=EXX-LHF (local Hartree Fock) 2=EXX OEP
   LHFCALC =     T    Hartree Fock is set to
   LSYMGRAD=     F    symmetrize gradient (conserves proper symmetry)
   PRECFOCK=fast      Normal, Fast or Accurate (Low or Medium for compatibility)
   LRHFCALC=     F    long range Hartree Fock
   LRSCOR  =     F    long range correlation only (use DFT for short range part)
   LTHOMAS =     F    Thomas Fermi screening in HF
   LMODELHF=     F    short range full HF, long range fraction AEXX
   LFOCKACE=     T    use Adeptively-Compressed-Exchange operator
   ENCUT4O =  -1.0   cutoff for four orbital integrals eV
   LMAXFOCK=     4    L truncation for augmentation on plane wave grid
   LMAXFOCKAE=  -1    L truncation for all-electron charge restoration on plane wave grid
   NMAXFOCKAE=   1    number of basis functions for all-electron charge restoration
   LFOCKAEDFT=     F  apply the AE augmentation even for DFT
   NKREDX  =     1    reduce k-point grid by
   NKREDY  =     1    reduce k-point grid by
   NKREDZ  =     1    reduce k-point grid by
   SHIFTRED=     F    shift reduced grid of Gamma
   HFKIDENT=     F    idential grid for each k-point
   ODDONLY =     F    use only odd q-grid points
   EVENONLY=     F    use only even q-grid points
   HFALPHA =   -1.0000 decay constant for conv. correction
   MCALPHA =    0.0000 extent of test-charge in conv. correction in multipole expansion
   AEXX    =    0.3450 exact exchange contribution
   HFSCREEN=    0.2000 screening length (either q_TF or 0.3 A-1)
   HFSCREENC=   0.2000 screening length for correlation (either q_TF or 0.3 A-1)
   HFRCUT  =    0.0000 spherical cutoff for potential kernel
   ALDAX   =    0.6550 LDA exchange part
   AGGAX   =    0.6550 GGA exchange part
   ALDAC   =    1.0000 LDA correlation
   AGGAC   =    1.0000 GGA correlation
   ENCUTFOCK=  -1.0 apply spherical cutoff to Coloumb kernel
   NBANDSGWLOW=     1    first orbital included in HF term
   NBLOCK_FOCK=    64    blocking factor in FOCK_ACC
 Linear response parameters
   LEPSILON=     F    determine dielectric tensor
   LRPA    =     F    only Hartree local field effects (RPA)
   LNABLA  =     F    use nabla operator in PAW spheres
   LVEL    =     F    velocity operator in full k-point grid
   LINTERFAST=   F  fast interpolation
   KINTER  =     0    interpolate to denser k-point grid
   CSHIFT  =0.1000    complex shift for real part using Kramers Kronig
   OMEGAMAX=  -1.0    maximum frequency
   DEG_THRESHOLD= 0.2000000E-02 threshold for treating states as degnerate
   RTIME   =   -0.100 relaxation time in fs
  (WPLASMAI=    0.000 imaginary part of plasma frequency in eV, 0.658/RTIME)
   DFIELD  = 0.0000000 0.0000000 0.0000000 field for delta impulse in time
 
 Orbital magnetization related:
   ORBITALMAG=     F  switch on orbital magnetization
   LCHIMAG   =     F  perturbation theory with respect to B field
   DQ        =  0.001000  dq finite difference perturbation B field
   LLRAUG    =     F  two centre corrections for induced B field



--------------------------------------------------------------------------------------------------------


 conjugate gradient relaxation of ions
 charge density and potential will be updated during run
 non-spin polarized calculation
 Variant of blocked Davidson
 Davidson routine will perform the subspace rotation
 perform sub-space diagonalisation
    after iterative eigenvector-optimisation
 Kerker-like  mixing scheme
 using additional bands           58
 real space projection scheme for non local part
 use partial core corrections
 calculate Harris-corrections to forces 
   (improved forces if not selfconsistent)
 use gradient corrections 
 use of overlap-Matrix (Vanderbilt PP)
 Gauss-broadening in eV      SIGMA  =   0.05


--------------------------------------------------------------------------------------------------------


  energy-cutoff  :      450.00
  volume of cell :     2241.29
      direct lattice vectors                 reciprocal lattice vectors
    13.086768000  0.000000000  0.000000000     0.076413061  0.000000000  0.000000000
     0.000000000 13.086768000  0.000000000     0.000000000  0.076413061  0.000000000
     0.000000000  0.000000000 13.086768000     0.000000000  0.000000000  0.076413061

  length of vectors
    13.086768000 13.086768000 13.086768000     0.076413061  0.076413061  0.076413061


 
 k-points in units of 2pi/SCALE and weight: Kpoints from DefectsWithTheBoys.vasp_gam
   0.00000000  0.00000000  0.00000000       1.000
 
 k-points in reciprocal lattice and weights: Kpoints from DefectsWithTheBoys.vasp_gam
   0.00000000  0.00000000  0.00000000       1.000
 
 position of ions in fractional coordinates (direct lattice) 
   0.00236458  0.99773629  0.49892969
   0.00200747  0.49746074  0.99920088
   0.00127803  0.49743942  0.50065183
   0.50223894  0.99768120  0.99884868
   0.50120505  0.99691570  0.49921652
   0.50133319  0.49738143  0.99924174
   0.50196062  0.49787992  0.49944444
   0.99320423  0.24414082  0.24549366
   0.01006997  0.24423356  0.75458739
   0.00658731  0.75133184  0.24503366
   0.99431213  0.75291307  0.75454829
   0.49945949  0.24576428  0.24826070
   0.50160367  0.24606784  0.75074101
   0.50198956  0.74982387  0.24734300
   0.50208111  0.75143081  0.75138372
   0.24457642  0.99363539  0.24504400
   0.24385641  0.00351364  0.75351468
   0.25092067  0.49778227  0.24763688
   0.25286326  0.49896348  0.75083081
   0.75761794  0.00428414  0.24524901
   0.75909774  0.99566951  0.75432689
   0.75084470  0.49722427  0.24964472
   0.75192510  0.49794754  0.75087533
   0.24434222  0.24247780  0.99514515
   0.25159195  0.24724994  0.49883719
   0.24530732  0.75275829  0.00244638
   0.25067583  0.74717832  0.50025206
   0.75754204  0.24453261  0.00463482
   0.75097830  0.24629456  0.50097106
   0.75736171  0.75204767  0.99681023
   0.75241209  0.74963450  0.49847993
   0.12603719  0.12388975  0.37287133
   0.11568132  0.11241119  0.88442776
   0.12613528  0.62225627  0.37421131
   0.12607822  0.62386250  0.87381363
   0.62613110  0.12217326  0.37395301
   0.62910529  0.12294704  0.87542279
   0.62573095  0.62388430  0.37426777
   0.62677760  0.62437487  0.87568190
   0.12580551  0.37115604  0.12492930
   0.12840764  0.37336804  0.62504725
   0.11654754  0.88011556  0.11598906
   0.12585983  0.87188904  0.62534776
   0.62583275  0.37126916  0.12477920
   0.62592308  0.37256629  0.62568977
   0.62868286  0.87434321  0.12459462
   0.62860143  0.87466916  0.62602394
   0.37425044  0.12104727  0.12355594
   0.37587998  0.12167648  0.62513726
   0.37572440  0.62436169  0.12313974
   0.37832354  0.62386562  0.62543386
   0.88576355  0.11436054  0.11555557
   0.87852554  0.12369064  0.62575077
   0.87605227  0.62216320  0.12523062
   0.87560563  0.62374687  0.62501160
   0.37660377  0.37312055  0.37379282
   0.37544533  0.37077330  0.87555505
   0.37490798  0.87246653  0.37364094
   0.37402862  0.87463758  0.87462888
   0.87512225  0.37236234  0.37585768
   0.87682504  0.37163261  0.87417812
   0.87656068  0.87336744  0.37289503
   0.88548535  0.88146395  0.88464538
 
 position of ions in cartesian coordinates  (Angst):
   0.03094466 13.05714334  6.52937708
   0.02627126  6.51015328 13.07631011
   0.01672528  6.50987425  6.55191431
   6.57268443 13.05642246 13.07170091
   6.55915423 13.04640453  6.53313078
   6.56083117  6.50911535 13.07684484
   6.56904212  6.51563900  6.53611348
  12.99783334  3.19501422  3.21271858
   0.13178331  3.19622789  9.87511017
   0.08620663  9.83250551  3.20669867
  13.01233222  9.85319864  9.87459838
   6.53631041  3.21626015  3.24893014
   6.56437080  3.22023278  9.82477340
   6.56942097  9.81277097  3.23692043
   6.57061894  9.83380072  9.83318439
   3.20071493 13.00347584  3.20683400
   3.19129229  0.04598220  9.86107187
   3.28374059  6.51436102  3.24076638
   3.30916277  6.52981928  9.82594860
   9.91477015  0.05606557  3.20951684
   9.93413605 13.03009590  9.87170099
   9.82613033  6.50705872  3.26704255
   9.84026940  6.51652388  9.82653129
   3.19764997  3.17325067 13.02323376
   3.29252549  3.23570259  6.52816653
   3.21028002  9.85117314  0.03201525
   3.28053639  9.77814935  6.54668259
   9.91377687  3.20014151  0.06065486
   9.82787878  3.22319978  6.55609199
   9.91141703  9.84187332 13.04502428
   9.84664243  9.81029284  6.52349125
   1.64941941  1.62131637  4.87968057
   1.51389460  1.47109921 11.57430090
   1.65070319  8.14332342  4.89721666
   1.64995643  8.16434382 11.43539626
   8.19403243  1.59885310  4.89383632
   8.23295502  1.60897934 11.45645489
   8.18879578  8.16462910  4.89795547
   8.20249309  8.17104913 11.45984586
   1.64638755  4.85723296  1.63492074
   1.68044104  4.88618097  8.17984836
   1.52523062 11.51786819  1.51792192
   1.64709838 11.41020955  8.18378103
   8.19012797  4.85871339  1.63295648
   8.19131016  4.87568854  8.18825687
   8.22742669 11.44232669  1.63054091
   8.22636112 11.44659243  8.19263006
   4.89772870  1.58411748  1.61694797
   4.91905411  1.59235192  8.18102624
   4.91701803  8.17087652  1.61150122
   4.95103243  8.16438465  8.18490777
  11.59178207  1.49660981  1.51224889
  11.49705987  1.61871066  8.18905521
  11.46469278  8.14210543  1.63886402
  11.45884773  8.16283052  8.17938176
   4.92852616  4.88294207  4.89173991
   4.91336597  4.85222420 11.45818583
   4.90633371 11.41776711  4.88975235
   4.89482582 11.44617915 11.44606526
  11.45252181  4.87301961  4.91876225
  11.47480590  4.86346975 11.44016621
  11.47134626 11.42955707  4.87999070
  11.58814139 11.53551416 11.57714890
 


--------------------------------------------------------------------------------------------------------


 use parallel FFT for orbitals z direction half grid
 k-point   1 :   0.0000 0.0000 0.0000  plane waves:   24251

 maximum and minimum number of plane-waves per node :      2027     2015

 maximum number of plane-waves:     24251
 maximum index in each direction: 
   IXMAX=   22   IYMAX=   22   IZMAX=   22
   IXMIN=  -22   IYMIN=  -22   IZMIN=    0


 real space projection operators:
  total allocation   :      27355.84 KBytes
  max/ min on nodes  :       2580.78       2072.77


 parallel 3D FFT for wavefunctions:
    minimum data exchange during FFTs selected (reduces bandwidth)
 parallel 3D FFT for charge:
    minimum data exchange during FFTs selected (reduces bandwidth)


 FFT grid for exact exchange (Hartree Fock) 
  NGX = 48; NGY = 48; NGZ = 48

 use parallel FFT for orbitals z direction half grid
 
 Radii for the augmentation spheres in the non-local exchange
 for species   1 augmentation radius   1.444 (default was   1.070)
       energy cutoff for augmentation   1800.0
 for species   2 augmentation radius   1.606 (default was   1.190)
       energy cutoff for augmentation   1800.0

 real space projection operators:
  total allocation   :       9137.11 KBytes
  max/ min on nodes  :        880.47        556.25

 Maximum index for augmentation-charges in exchange           92
  SETUP_FOCK is finished

 total amount of memory used by VASP MPI-rank0    54476. kBytes
=======================================================================

   base      :      30000. kBytes
   nonlr-proj:       3332. kBytes
   fftplans  :       6877. kBytes
   grid      :      11280. kBytes
   one-center:         46. kBytes
   HF        :        129. kBytes
   wavefun   :       2812. kBytes
 
     INWAV:  cpu time    0.0001: real time    0.0002
 initial charge density was supplied:
 charge density of overlapping atoms calculated
 number of electron     564.0000000 magnetization 
 keeping initial charge density in first step


--------------------------------------------------------------------------------------------------------


 Maximum index for non-local projection operator          300
 Maximum index for augmentation-charges          780 (set IRDMAX)


--------------------------------------------------------------------------------------------------------


 First call to EWALD:  gamma=   0.135
 Maximum number of real-space cells 3x 3x 3
 Maximum number of reciprocal cells 3x 3x 3

    FEWALD:  cpu time    0.0034: real time    0.0556


--------------------------------------- Iteration      1(   1)  ---------------------------------------


    POTLOK:  cpu time    0.1203: real time    0.2316
    SETDIJ:  cpu time    0.5758: real time    0.6357
     EDDAV:  cpu time    1.8732: real time    1.9760
       DOS:  cpu time    0.0009: real time    0.0618
    --------------------------------------------
      LOOP:  cpu time    2.5703: real time    2.9628

 eigenvalue-minimisations  :   720
 total energy-change (2. order) :-0.8811727E+05  (-0.2741737E+05)
 number of electron     564.0000000 magnetization 
 augmentation part      564.0000000 magnetization 

 Free energy of the ion-electron system (eV)
  ---------------------------------------------------
  alpha Z        PSCENC =      1482.04539224
  Ewald energy   TEWEN  =    -31949.31950301
  -Hartree energ DENC   =    -16280.14297126
  -exchange      EXHF   =         0.00000000
  -V(xc)+E(xc)   XCENC  =      -734.39545787
  PAW double counting   =     43745.08136476  -132352.96792733
  entropy T*S    EENTRO =        -0.01016732
  eigenvalues    EBANDS =       834.05840875
  atomic energy  EATOM  =     47138.37786884
  Solvation  Ediel_sol  =         0.00000000
  ---------------------------------------------------
  free energy    TOTEN  =    -88117.27299219 eV

  energy without entropy =   -88117.26282488  energy(sigma->0) =   -88117.26790853
  exchange ACFDT corr.  =         0.00000000  see jH, gK, PRB 81, 115126


--------------------------------------------------------------------------------------------------------




--------------------------------------- Iteration      1(   2)  ---------------------------------------


     EDDAV:  cpu time    1.9785: real time    3.6634
       DOS:  cpu time    0.0009: real time    0.0723
    --------------------------------------------
      LOOP:  cpu time    1.9794: real time    3.7397

 eigenvalue-minimisations  :   788
 total energy-change (2. order) :-0.4712641E+04  (-0.4577588E+04)
 number of electron     564.0000000 magnetization 
 augmentation part      564.0000000 magnetization 

 Free energy of the ion-electron system (eV)
  ---------------------------------------------------
  alpha Z        PSCENC =      1482.04539224
  Ewald energy   TEWEN  =    -31949.31950301
  -Hartree energ DENC   =    -16280.14297126
  -exchange      EXHF   =         0.00000000
  -V(xc)+E(xc)   XCENC  =      -734.39545787
  PAW double counting   =     43745.08136476  -132352.96792733
  entropy T*S    EENTRO =        -0.00000000
  eigenvalues    EBANDS =     -3878.59236182
  atomic energy  EATOM  =     47138.37786884
  Solvation  Ediel_sol  =         0.00000000
  ---------------------------------------------------
  free energy    TOTEN  =    -92829.91359545 eV

  energy without entropy =   -92829.91359545  energy(sigma->0) =   -92829.91359545
  exchange ACFDT corr.  =         0.00000000  see jH, gK, PRB 81, 115126


--------------------------------------------------------------------------------------------------------




--------------------------------------- Iteration      1(   3)  ---------------------------------------


     EDDAV:  cpu time    1.9751: real time    3.2947
       DOS:  cpu time    0.0011: real time    0.1450
    --------------------------------------------
      LOOP:  cpu time    1.9761: real time    3.4244

 eigenvalue-minimisations  :   776
 total energy-change (2. order) :-0.3804682E+03  (-0.3755788E+03)
 number of electron     564.0000000 magnetization 
 augmentation part      564.0000000 magnetization 

 Free energy of the ion-electron system (eV)
  ---------------------------------------------------
  alpha Z        PSCENC =      1482.04539224
  Ewald energy   TEWEN  =    -31949.31950301
  -Hartree energ DENC   =    -16280.14297126
  -exchange      EXHF   =         0.00000000
  -V(xc)+E(xc)   XCENC  =      -734.39545787
  PAW double counting   =     43745.08136476  -132352.96792733
  entropy T*S    EENTRO =        -0.07238881
  eigenvalues    EBANDS =     -4258.98822007
  atomic energy  EATOM  =     47138.37786884
  Solvation  Ediel_sol  =         0.00000000
  ---------------------------------------------------
  free energy    TOTEN  =    -93210.38184250 eV

  energy without entropy =   -93210.30945370  energy(sigma->0) =   -93210.34564810
  exchange ACFDT corr.  =         0.00000000  see jH, gK, PRB 81, 115126


--------------------------------------------------------------------------------------------------------




--------------------------------------- Iteration      1(   4)  ---------------------------------------


     EDDAV:  cpu time    2.4427: real time    3.6995
       DOS:  cpu time    0.0048: real time    0.4578
    --------------------------------------------
      LOOP:  cpu time    2.4475: real time    4.1420

 eigenvalue-minimisations  :   824
 total energy-change (2. order) :-0.1912830E+02  (-0.1906593E+02)
 number of electron     564.0000000 magnetization 
 augmentation part      564.0000000 magnetization 

 Free energy of the ion-electron system (eV)
  ---------------------------------------------------
  alpha Z        PSCENC =      1482.04539224
  Ewald energy   TEWEN  =    -31949.31950301
  -Hartree energ DENC   =    -16280.14297126
  -exchange      EXHF   =         0.00000000
  -V(xc)+E(xc)   XCENC  =      -734.39545787
  PAW double counting   =     43745.08136476  -132352.96792733
  entropy T*S    EENTRO =        -0.07642549
  eigenvalues    EBANDS =     -4278.11247852
  atomic energy  EATOM  =     47138.37786884
  Solvation  Ediel_sol  =         0.00000000
  ---------------------------------------------------
  free energy    TOTEN  =    -93229.51013764 eV

  energy without entropy =   -93229.43371215  energy(sigma->0) =   -93229.47192490
  exchange ACFDT corr.  =         0.00000000  see jH, gK, PRB 81, 115126


--------------------------------------------------------------------------------------------------------




--------------------------------------- Iteration      1(   5)  ---------------------------------------


    POTLOK:  cpu time    0.2419: real time    1.0727
    SETDIJ:  cpu time    0.9139: real time    0.9587
     EDDAV:  cpu time   17.5906: real time   17.8075
       DOS:  cpu time    0.0010: real time    0.0615
    CHARGE:  cpu time    0.0695: real time    0.1105
    MIXING:  cpu time    0.0013: real time    0.0633
    --------------------------------------------
      LOOP:  cpu time   18.8182: real time   20.0991

 eigenvalue-minimisations  :   680
 total energy-change (2. order) : 0.9302947E+05  (-0.7767120E+02)
 number of electron     564.0000004 magnetization 
 augmentation part      142.2770252 magnetization 

 Free energy of the ion-electron system (eV)
  ---------------------------------------------------
  alpha Z        PSCENC =      1482.04539224
  Ewald energy   TEWEN  =    -31949.31950301
  -Hartree energ DENC   =    -16280.14297126
  -exchange      EXHF   =      1582.20886644
  -V(xc)+E(xc)   XCENC  =      -599.65890749
  PAW double counting   =     43590.36926174   -41748.31759969
  entropy T*S    EENTRO =        -0.07294826
  eigenvalues    EBANDS =     -3415.53270950
  atomic energy  EATOM  =     47138.37786884
  Solvation  Ediel_sol  =         0.00000000
  ---------------------------------------------------
  free energy    TOTEN  =      -200.04324995 eV

  energy without entropy =     -199.97030168  energy(sigma->0) =     -200.00677582
  exchange ACFDT corr.  =         0.00000000  see jH, gK, PRB 81, 115126


--------------------------------------------------------------------------------------------------------




--------------------------------------- Iteration      1(   6)  ---------------------------------------


    POTLOK:  cpu time    0.2436: real time    1.3343
    SETDIJ:  cpu time    0.9173: real time    0.9590
     EDDAV:  cpu time   18.3316: real time   18.7762
       DOS:  cpu time    0.0034: real time    0.1021
    CHARGE:  cpu time    0.0699: real time    0.0975
    MIXING:  cpu time    0.0012: real time    0.0188
    --------------------------------------------
      LOOP:  cpu time   19.5670: real time   21.2659

 eigenvalue-minimisations  :   764
 total energy-change (2. order) :-0.5754437E+01  (-0.6051776E+01)
 number of electron     564.0000007 magnetization 
 augmentation part      142.3442437 magnetization 

 Free energy of the ion-electron system (eV)
  ---------------------------------------------------
  alpha Z        PSCENC =      1482.04539224
  Ewald energy   TEWEN  =    -31949.31950301
  -Hartree energ DENC   =    -16306.57070802
  -exchange      EXHF   =      1522.63191804
  -V(xc)+E(xc)   XCENC  =      -597.21458253
  PAW double counting   =     73851.67549455   -71986.32436157
  entropy T*S    EENTRO =        -0.05817644
  eigenvalues    EBANDS =     -3361.04102894
  atomic energy  EATOM  =     47138.37786884
  Solvation  Ediel_sol  =         0.00000000
  ---------------------------------------------------
  free energy    TOTEN  =      -205.79768684 eV

  energy without entropy =     -205.73951040  energy(sigma->0) =     -205.76859862
  exchange ACFDT corr.  =         0.00000000  see jH, gK, PRB 81, 115126


--------------------------------------------------------------------------------------------------------




--------------------------------------- Iteration      1(   7)  ---------------------------------------


    POTLOK:  cpu time    0.2423: real time    1.1207
    SETDIJ:  cpu time    0.9060: real time    0.9591
     EDDAV:  cpu time   18.6032: real time   18.8221
       DOS:  cpu time    0.0046: real time    0.0882
    CHARGE:  cpu time    0.0747: real time    0.0903
    MIXING:  cpu time    0.0012: real time    0.0223
    --------------------------------------------
      LOOP:  cpu time   19.8322: real time   21.1023

 eigenvalue-minimisations  :   784
 total energy-change (2. order) : 0.1245365E+00  (-0.9404961E+00)
 number of electron     564.0000009 magnetization 
 augmentation part      143.5249979 magnetization 

 Free energy of the ion-electron system (eV)
  ---------------------------------------------------
  alpha Z        PSCENC =      1482.04539224
  Ewald energy   TEWEN  =    -31949.31950301
  -Hartree energ DENC   =    -16227.34618934
  -exchange      EXHF   =      1503.97639400
  -V(xc)+E(xc)   XCENC  =      -597.14134421
  PAW double counting   =     99845.25619068   -97965.25177612
  entropy T*S    EENTRO =        -0.02482717
  eigenvalues    EBANDS =     -3436.24535623
  atomic energy  EATOM  =     47138.37786884
  Solvation  Ediel_sol  =         0.00000000
  ---------------------------------------------------
  free energy    TOTEN  =      -205.67315032 eV

  energy without entropy =     -205.64832315  energy(sigma->0) =     -205.66073674
  exchange ACFDT corr.  =         0.00000000  see jH, gK, PRB 81, 115126


--------------------------------------------------------------------------------------------------------




--------------------------------------- Iteration      1(   8)  ---------------------------------------


    POTLOK:  cpu time    0.2437: real time    1.4597
    SETDIJ:  cpu time    0.9345: real time    0.9897
     EDDAV:  cpu time   17.9461: real time   18.2718
       DOS:  cpu time    0.0009: real time    0.0321
    CHARGE:  cpu time    0.0682: real time    0.0851
    MIXING:  cpu time    0.0013: real time    0.0464
    --------------------------------------------
      LOOP:  cpu time   19.1946: real time   20.8688

 eigenvalue-minimisations  :   756
 total energy-change (2. order) :-0.1662430E+00  (-0.1555337E+00)
 number of electron     564.0000010 magnetization 
 augmentation part      143.9988179 magnetization 

 Free energy of the ion-electron system (eV)
  ---------------------------------------------------
  alpha Z        PSCENC =      1482.04539224
  Ewald energy   TEWEN  =    -31949.31950301
  -Hartree energ DENC   =    -16193.81763666
  -exchange      EXHF   =      1500.48454787
  -V(xc)+E(xc)   XCENC  =      -596.82301672
  PAW double counting   =    118067.21644046  -116182.31120499
  entropy T*S    EENTRO =        -0.00474652
  eigenvalues    EBANDS =     -3471.68753480
  atomic energy  EATOM  =     47138.37786884
  Solvation  Ediel_sol  =         0.00000000
  ---------------------------------------------------
  free energy    TOTEN  =      -205.83939329 eV

  energy without entropy =     -205.83464677  energy(sigma->0) =     -205.83702003
  exchange ACFDT corr.  =         0.00000000  see jH, gK, PRB 81, 115126


--------------------------------------------------------------------------------------------------------




--------------------------------------- Iteration      1(   9)  ---------------------------------------


    POTLOK:  cpu time    0.2538: real time    1.1957
    SETDIJ:  cpu time    0.8979: real time    0.9479
     EDDAV:  cpu time   17.4146: real time   17.6358
       DOS:  cpu time    0.0010: real time    0.1054
    CHARGE:  cpu time    0.0683: real time    0.1024
    MIXING:  cpu time    0.0013: real time    0.0155
    --------------------------------------------
      LOOP:  cpu time   18.6368: real time   20.0111

 eigenvalue-minimisations  :   732
 total energy-change (2. order) : 0.8821865E-01  (-0.1139581E-01)
 number of electron     564.0000011 magnetization 
 augmentation part      144.0517827 magnetization 

 Free energy of the ion-electron system (eV)
  ---------------------------------------------------
  alpha Z        PSCENC =      1482.04539224
  Ewald energy   TEWEN  =    -31949.31950301
  -Hartree energ DENC   =    -16186.65212082
  -exchange      EXHF   =      1500.16394775
  -V(xc)+E(xc)   XCENC  =      -596.38334150
  PAW double counting   =    130606.21511882  -128719.96902801
  entropy T*S    EENTRO =        -0.00336758
  eigenvalues    EBANDS =     -3480.22614138
  atomic energy  EATOM  =     47138.37786884
  Solvation  Ediel_sol  =         0.00000000
  ---------------------------------------------------
  free energy    TOTEN  =      -205.75117464 eV

  energy without entropy =     -205.74780706  energy(sigma->0) =     -205.74949085
  exchange ACFDT corr.  =         0.00000000  see jH, gK, PRB 81, 115126


--------------------------------------------------------------------------------------------------------




--------------------------------------- Iteration      1(  10)  ---------------------------------------


    POTLOK:  cpu time    0.2441: real time    1.2974
    SETDIJ:  cpu time    0.9147: real time    0.9282
     EDDAV:  cpu time   18.1929: real time   18.5290
       DOS:  cpu time    0.0036: real time    0.0534
    CHARGE:  cpu time    0.0785: real time    0.1074
    MIXING:  cpu time    0.0012: real time    0.0182
    --------------------------------------------
      LOOP:  cpu time   19.4350: real time   20.9298

 eigenvalue-minimisations  :   708
 total energy-change (2. order) : 0.4740950E-01  (-0.6121566E-02)
 number of electron     564.0000011 magnetization 
 augmentation part      143.9748273 magnetization 

 Free energy of the ion-electron system (eV)
  ---------------------------------------------------
  alpha Z        PSCENC =      1482.04539224
  Ewald energy   TEWEN  =    -31949.31950301
  -Hartree energ DENC   =    -16184.88377633
  -exchange      EXHF   =      1500.28293162
  -V(xc)+E(xc)   XCENC  =      -596.04507845
  PAW double counting   =    138510.15337488  -136623.34876699
  entropy T*S    EENTRO =        -0.00485157
  eigenvalues    EBANDS =     -3482.96135637
  atomic energy  EATOM  =     47138.37786884
  Solvation  Ediel_sol  =         0.00000000
  ---------------------------------------------------
  free energy    TOTEN  =      -205.70376514 eV

  energy without entropy =     -205.69891357  energy(sigma->0) =     -205.70133935
  exchange ACFDT corr.  =         0.00000000  see jH, gK, PRB 81, 115126


--------------------------------------------------------------------------------------------------------




--------------------------------------- Iteration      1(  11)  ---------------------------------------


    POTLOK:  cpu time    0.2631: real time    1.1879
    SETDIJ:  cpu time    0.9197: real time    0.9574
     EDDAV:  cpu time   17.1388: real time   17.1731
       DOS:  cpu time    0.0010: real time    0.0717
    CHARGE:  cpu time    0.0685: real time    0.0852
    MIXING:  cpu time    0.0013: real time    0.0177
    --------------------------------------------
      LOOP:  cpu time   18.3922: real time   19.4932

 eigenvalue-minimisations  :   732
 total energy-change (2. order) : 0.8978265E-02  (-0.4046577E-02)
 number of electron     564.0000011 magnetization 
 augmentation part      143.9070919 magnetization 

 Free energy of the ion-electron system (eV)
  ---------------------------------------------------
  alpha Z        PSCENC =      1482.04539224
  Ewald energy   TEWEN  =    -31949.31950301
  -Hartree energ DENC   =    -16183.62350287
  -exchange      EXHF   =      1500.48499680
  -V(xc)+E(xc)   XCENC  =      -595.83230906
  PAW double counting   =    143287.89472467  -141400.66740139
  entropy T*S    EENTRO =        -0.00556840
  eigenvalues    EBANDS =     -3485.04948469
  atomic energy  EATOM  =     47138.37786884
  Solvation  Ediel_sol  =         0.00000000
  ---------------------------------------------------
  free energy    TOTEN  =      -205.69478687 eV

  energy without entropy =     -205.68921847  energy(sigma->0) =     -205.69200267
  exchange ACFDT corr.  =         0.00000000  see jH, gK, PRB 81, 115126


--------------------------------------------------------------------------------------------------------




--------------------------------------- Iteration      1(  12)  ---------------------------------------


    POTLOK:  cpu time    0.2439: real time    1.3596
    SETDIJ:  cpu time    0.9150: real time    0.9371
     EDDAV:  cpu time   18.1832: real time   18.4624
       DOS:  cpu time    0.0024: real time    0.0854
    CHARGE:  cpu time    0.0809: real time    0.1278
    MIXING:  cpu time    0.0013: real time    0.0258
    --------------------------------------------
      LOOP:  cpu time   19.4266: real time   20.9993

 eigenvalue-minimisations  :   788
 total energy-change (2. order) : 0.3561887E-02  (-0.2179839E-02)
 number of electron     564.0000011 magnetization 
 augmentation part      143.8709155 magnetization 

 Free energy of the ion-electron system (eV)
  ---------------------------------------------------
  alpha Z        PSCENC =      1482.04539224
  Ewald energy   TEWEN  =    -31949.31950301
  -Hartree energ DENC   =    -16182.81762752
  -exchange      EXHF   =      1500.65551409
  -V(xc)+E(xc)   XCENC  =      -595.70455953
  PAW double counting   =    146147.07064506  -144259.52852717
  entropy T*S    EENTRO =        -0.00534643
  eigenvalues    EBANDS =     -3486.46508155
  atomic energy  EATOM  =     47138.37786884
  Solvation  Ediel_sol  =         0.00000000
  ---------------------------------------------------
  free energy    TOTEN  =      -205.69122499 eV

  energy without entropy =     -205.68587856  energy(sigma->0) =     -205.68855177
  exchange ACFDT corr.  =         0.00000000  see jH, gK, PRB 81, 115126


--------------------------------------------------------------------------------------------------------




--------------------------------------- Iteration      1(  13)  ---------------------------------------


    POTLOK:  cpu time    0.2519: real time    1.2237
    SETDIJ:  cpu time    0.9161: real time    0.9598
     EDDAV:  cpu time   17.8748: real time   17.9659
       DOS:  cpu time    0.0010: real time    0.0520
    CHARGE:  cpu time    0.0689: real time    0.0918
    MIXING:  cpu time    0.0012: real time    0.0743
    --------------------------------------------
      LOOP:  cpu time   19.1139: real time   20.4049

 eigenvalue-minimisations  :   724
 total energy-change (2. order) : 0.4004368E-03  (-0.1226092E-02)
 number of electron     564.0000012 magnetization 
 augmentation part      143.8561893 magnetization 

 Free energy of the ion-electron system (eV)
  ---------------------------------------------------
  alpha Z        PSCENC =      1482.04539224
  Ewald energy   TEWEN  =    -31949.31950301
  -Hartree energ DENC   =    -16182.50628779
  -exchange      EXHF   =      1500.75232073
  -V(xc)+E(xc)   XCENC  =      -595.62724708
  PAW double counting   =    147830.40822340  -145942.65424434
  entropy T*S    EENTRO =        -0.00490387
  eigenvalues    EBANDS =     -3487.16244367
  atomic energy  EATOM  =     47138.37786884
  Solvation  Ediel_sol  =         0.00000000
  ---------------------------------------------------
  free energy    TOTEN  =      -205.69082455 eV

  energy without entropy =     -205.68592067  energy(sigma->0) =     -205.68837261
  exchange ACFDT corr.  =         0.00000000  see jH, gK, PRB 81, 115126


--------------------------------------------------------------------------------------------------------




--------------------------------------- Iteration      1(  14)  ---------------------------------------


    POTLOK:  cpu time    0.2467: real time    1.1494
    SETDIJ:  cpu time    0.9082: real time    0.9516
     EDDAV:  cpu time   18.3148: real time   18.5978
       DOS:  cpu time    0.0043: real time    0.0600
    CHARGE:  cpu time    0.0731: real time    0.0869
    MIXING:  cpu time    0.0012: real time    0.0628
    --------------------------------------------
      LOOP:  cpu time   19.5483: real time   20.8701

 eigenvalue-minimisations  :   764
 total energy-change (2. order) :-0.3648098E-03  (-0.4282833E-03)
 number of electron     564.0000012 magnetization 
 augmentation part      143.8497907 magnetization 

 Free energy of the ion-electron system (eV)
  ---------------------------------------------------
  alpha Z        PSCENC =      1482.04539224
  Ewald energy   TEWEN  =    -31949.31950301
  -Hartree energ DENC   =    -16182.56211891
  -exchange      EXHF   =      1500.79303787
  -V(xc)+E(xc)   XCENC  =      -595.57882716
  PAW double counting   =    148803.71065620  -146915.83015265
  entropy T*S    EENTRO =        -0.00468093
  eigenvalues    EBANDS =     -3487.32286185
  atomic energy  EATOM  =     47138.37786884
  Solvation  Ediel_sol  =         0.00000000
  ---------------------------------------------------
  free energy    TOTEN  =      -205.69118936 eV

  energy without entropy =     -205.68650843  energy(sigma->0) =     -205.68884889
  exchange ACFDT corr.  =         0.00000000  see jH, gK, PRB 81, 115126


--------------------------------------------------------------------------------------------------------




--------------------------------------- Iteration      1(  15)  ---------------------------------------


    POTLOK:  cpu time    0.2559: real time    1.2641
    SETDIJ:  cpu time    0.9202: real time    0.9400
     EDDAV:  cpu time   18.2338: real time   18.3622
       DOS:  cpu time    0.0060: real time    0.0647
    CHARGE:  cpu time    0.0674: real time    0.1110
    MIXING:  cpu time    0.0013: real time    0.0401
    --------------------------------------------
      LOOP:  cpu time   19.4848: real time   20.9294

 eigenvalue-minimisations  :   748
 total energy-change (2. order) : 0.1903762E-03  (-0.1038913E-03)
 number of electron     564.0000012 magnetization 
 augmentation part      143.8468475 magnetization 

 Free energy of the ion-electron system (eV)
  ---------------------------------------------------
  alpha Z        PSCENC =      1482.04539224
  Ewald energy   TEWEN  =    -31949.31950301
  -Hartree energ DENC   =    -16182.71747306
  -exchange      EXHF   =      1500.79590667
  -V(xc)+E(xc)   XCENC  =      -595.54929582
  PAW double counting   =    149387.90833712  -147499.95370810
  entropy T*S    EENTRO =        -0.00469130
  eigenvalues    EBANDS =     -3487.27383255
  atomic energy  EATOM  =     47138.37786884
  Solvation  Ediel_sol  =         0.00000000
  ---------------------------------------------------
  free energy    TOTEN  =      -205.69099898 eV

  energy without entropy =     -205.68630768  energy(sigma->0) =     -205.68865333
  exchange ACFDT corr.  =         0.00000000  see jH, gK, PRB 81, 115126


--------------------------------------------------------------------------------------------------------




--------------------------------------- Iteration      1(  16)  ---------------------------------------


    POTLOK:  cpu time    0.2590: real time    2.4878
    SETDIJ:  cpu time    0.9231: real time    0.9588
     EDDAV:  cpu time   17.6614: real time   17.8759
       DOS:  cpu time    0.0133: real time    0.1245
    CHARGE:  cpu time    0.0732: real time    0.0995
    MIXING:  cpu time    0.0013: real time    0.0171
    --------------------------------------------
      LOOP:  cpu time   18.9312: real time   21.4090

 eigenvalue-minimisations  :   724
 total energy-change (2. order) : 0.1500558E-03  (-0.4479038E-04)
 number of electron     564.0000012 magnetization 
 augmentation part      143.8453066 magnetization 

 Free energy of the ion-electron system (eV)
  ---------------------------------------------------
  alpha Z        PSCENC =      1482.04539224
  Ewald energy   TEWEN  =    -31949.31950301
  -Hartree energ DENC   =    -16182.83283516
  -exchange      EXHF   =      1500.78965930
  -V(xc)+E(xc)   XCENC  =      -595.53137360
  PAW double counting   =    149736.70698650  -147848.70973363
  entropy T*S    EENTRO =        -0.00481244
  eigenvalues    EBANDS =     -3487.21249797
  atomic energy  EATOM  =     47138.37786884
  Solvation  Ediel_sol  =         0.00000000
  ---------------------------------------------------
  free energy    TOTEN  =      -205.69084893 eV

  energy without entropy =     -205.68603649  energy(sigma->0) =     -205.68844271
  exchange ACFDT corr.  =         0.00000000  see jH, gK, PRB 81, 115126


--------------------------------------------------------------------------------------------------------




--------------------------------------- Iteration      1(  17)  ---------------------------------------


    POTLOK:  cpu time    0.2434: real time    1.5441
    SETDIJ:  cpu time    0.9186: real time    0.9435
     EDDAV:  cpu time   17.4722: real time   17.6370
       DOS:  cpu time    0.0010: real time    0.1275
    CHARGE:  cpu time    0.0691: real time    0.0854
    MIXING:  cpu time    0.0013: real time    0.0505
    --------------------------------------------
      LOOP:  cpu time   18.7056: real time   20.4429

 eigenvalue-minimisations  :   732
 total energy-change (2. order) : 0.1704073E-05  (-0.1880153E-04)
 number of electron     564.0000012 magnetization 
 augmentation part      143.8439515 magnetization 

 Free energy of the ion-electron system (eV)
  ---------------------------------------------------
  alpha Z        PSCENC =      1482.04539224
  Ewald energy   TEWEN  =    -31949.31950301
  -Hartree energ DENC   =    -16182.90249697
  -exchange      EXHF   =      1500.78342824
  -V(xc)+E(xc)   XCENC  =      -595.52043717
  PAW double counting   =    149943.12570529  -148055.10503773
  entropy T*S    EENTRO =        -0.00491995
  eigenvalues    EBANDS =     -3487.17084701
  atomic energy  EATOM  =     47138.37786884
  Solvation  Ediel_sol  =         0.00000000
  ---------------------------------------------------
  free energy    TOTEN  =      -205.69084722 eV

  energy without entropy =     -205.68592728  energy(sigma->0) =     -205.68838725
  exchange ACFDT corr.  =         0.00000000  see jH, gK, PRB 81, 115126


--------------------------------------------------------------------------------------------------------




--------------------------------------- Iteration      1(  18)  ---------------------------------------


    POTLOK:  cpu time    0.2486: real time    2.0503
    SETDIJ:  cpu time    0.9174: real time    0.9622
     EDDAV:  cpu time   17.1295: real time   17.3778
       DOS:  cpu time    0.0010: real time    0.1110
    CHARGE:  cpu time    0.0693: real time    0.1352
    MIXING:  cpu time    0.0012: real time    0.0322
    --------------------------------------------
      LOOP:  cpu time   18.3669: real time   20.6321

 eigenvalue-minimisations  :   572
 total energy-change (2. order) :-0.1550352E-04  (-0.9447310E-05)
 number of electron     564.0000012 magnetization 
 augmentation part      143.8432607 magnetization 

 Free energy of the ion-electron system (eV)
  ---------------------------------------------------
  alpha Z        PSCENC =      1482.04539224
  Ewald energy   TEWEN  =    -31949.31950301
  -Hartree energ DENC   =    -16182.94299698
  -exchange      EXHF   =      1500.77983368
  -V(xc)+E(xc)   XCENC  =      -595.51381717
  PAW double counting   =    150066.90459571  -148178.87162399
  entropy T*S    EENTRO =        -0.00496637
  eigenvalues    EBANDS =     -3487.14564568
  atomic energy  EATOM  =     47138.37786884
  Solvation  Ediel_sol  =         0.00000000
  ---------------------------------------------------
  free energy    TOTEN  =      -205.69086273 eV

  energy without entropy =     -205.68589636  energy(sigma->0) =     -205.68837954
  exchange ACFDT corr.  =         0.00000000  see jH, gK, PRB 81, 115126


--------------------------------------------------------------------------------------------------------




--------------------------------------- Iteration      1(  19)  ---------------------------------------


    POTLOK:  cpu time    0.2588: real time    2.5166
    SETDIJ:  cpu time    0.9210: real time    1.0106
     EDDAV:  cpu time   17.6937: real time   17.8476
       DOS:  cpu time    0.0011: real time    0.6171
    CHARGE:  cpu time    0.0667: real time    0.1164
    MIXING:  cpu time    0.0013: real time    0.0557
    --------------------------------------------
      LOOP:  cpu time   18.9426: real time   22.1955

 eigenvalue-minimisations  :   580
 total energy-change (2. order) :-0.3208593E-04  (-0.1476619E-04)
 number of electron     564.0000012 magnetization 
 augmentation part      143.8428352 magnetization 

 Free energy of the ion-electron system (eV)
  ---------------------------------------------------
  alpha Z        PSCENC =      1482.04539224
  Ewald energy   TEWEN  =    -31949.31950301
  -Hartree energ DENC   =    -16182.97259163
  -exchange      EXHF   =      1500.77822365
  -V(xc)+E(xc)   XCENC  =      -595.50968813
  PAW double counting   =    150140.73712409  -148252.69817410
  entropy T*S    EENTRO =        -0.00496581
  eigenvalues    EBANDS =     -3487.12458095
  atomic energy  EATOM  =     47138.37786884
  Solvation  Ediel_sol  =         0.00000000
  ---------------------------------------------------
  free energy    TOTEN  =      -205.69089481 eV

  energy without entropy =     -205.68592900  energy(sigma->0) =     -205.68841191
  exchange ACFDT corr.  =         0.00000000  see jH, gK, PRB 81, 115126


--------------------------------------------------------------------------------------------------------




--------------------------------------- Iteration      1(  20)  ---------------------------------------


    POTLOK:  cpu time    0.2449: real time    5.9219
    SETDIJ:  cpu time    0.9229: real time    0.9611
     EDDAV:  cpu time   18.0815: real time   18.4385
       DOS:  cpu time    0.0056: real time    0.1459
    CHARGE:  cpu time    0.0689: real time    0.1019
    MIXING:  cpu time    0.0012: real time    0.0738
    --------------------------------------------
      LOOP:  cpu time   19.3250: real time   25.6578

 eigenvalue-minimisations  :   540
 total energy-change (2. order) :-0.4331688E-04  (-0.1878355E-04)
 number of electron     564.0000012 magnetization 
 augmentation part      143.8426004 magnetization 

 Free energy of the ion-electron system (eV)
  ---------------------------------------------------
  alpha Z        PSCENC =      1482.04539224
  Ewald energy   TEWEN  =    -31949.31950301
  -Hartree energ DENC   =    -16183.00253895
  -exchange      EXHF   =      1500.77806180
  -V(xc)+E(xc)   XCENC  =      -595.50703154
  PAW double counting   =    150184.06272431  -148296.02111510
  entropy T*S    EENTRO =        -0.00495482
  eigenvalues    EBANDS =     -3487.09984191
  atomic energy  EATOM  =     47138.37786884
  Solvation  Ediel_sol  =         0.00000000
  ---------------------------------------------------
  free energy    TOTEN  =      -205.69093813 eV

  energy without entropy =     -205.68598331  energy(sigma->0) =     -205.68846072
  exchange ACFDT corr.  =         0.00000000  see jH, gK, PRB 81, 115126


--------------------------------------------------------------------------------------------------------




--------------------------------------- Iteration      1(  21)  ---------------------------------------


    POTLOK:  cpu time    0.2459: real time    1.3883
    SETDIJ:  cpu time    0.9141: real time    0.9448
     EDDAV:  cpu time   18.1037: real time   18.4019
       DOS:  cpu time    0.0012: real time    1.4133
    CHARGE:  cpu time    0.0674: real time    0.7256
    MIXING:  cpu time    0.0013: real time    0.5843
    --------------------------------------------
      LOOP:  cpu time   19.3339: real time   23.8608

 eigenvalue-minimisations  :   540
 total energy-change (2. order) :-0.2741419E-04  (-0.1759477E-04)
 number of electron     564.0000012 magnetization 
 augmentation part      143.8424287 magnetization 

 Free energy of the ion-electron system (eV)
  ---------------------------------------------------
  alpha Z        PSCENC =      1482.04539224
  Ewald energy   TEWEN  =    -31949.31950301
  -Hartree energ DENC   =    -16183.02963055
  -exchange      EXHF   =      1500.77822675
  -V(xc)+E(xc)   XCENC  =      -595.50528111
  PAW double counting   =    150209.37475430  -148321.33193130
  entropy T*S    EENTRO =        -0.00495730
  eigenvalues    EBANDS =     -3487.07590441
  atomic energy  EATOM  =     47138.37786884
  Solvation  Ediel_sol  =         0.00000000
  ---------------------------------------------------
  free energy    TOTEN  =      -205.69096554 eV

  energy without entropy =     -205.68600824  energy(sigma->0) =     -205.68848689
  exchange ACFDT corr.  =         0.00000000  see jH, gK, PRB 81, 115126


--------------------------------------------------------------------------------------------------------




--------------------------------------- Iteration      1(  22)  ---------------------------------------


    POTLOK:  cpu time    0.2449: real time    2.2863
    SETDIJ:  cpu time    0.9077: real time    0.9526
     EDDAV:  cpu time   17.3992: real time   17.6445
       DOS:  cpu time    0.0039: real time    0.3682
    CHARGE:  cpu time    0.0667: real time    0.2031
    MIXING:  cpu time    0.0013: real time    0.2472
    --------------------------------------------
      LOOP:  cpu time   18.6236: real time   21.9852

 eigenvalue-minimisations  :   556
 total energy-change (2. order) :-0.9119038E-05  (-0.1283350E-04)
 number of electron     564.0000012 magnetization 
 augmentation part      143.8422557 magnetization 

 Free energy of the ion-electron system (eV)
  ---------------------------------------------------
  alpha Z        PSCENC =      1482.04539224
  Ewald energy   TEWEN  =    -31949.31950301
  -Hartree energ DENC   =    -16183.05002023
  -exchange      EXHF   =      1500.77825776
  -V(xc)+E(xc)   XCENC  =      -595.50412638
  PAW double counting   =    150224.31228912  -148336.26881046
  entropy T*S    EENTRO =        -0.00497684
  eigenvalues    EBANDS =     -3487.05734571
  atomic energy  EATOM  =     47138.37786884
  Solvation  Ediel_sol  =         0.00000000
  ---------------------------------------------------
  free energy    TOTEN  =      -205.69097466 eV

  energy without entropy =     -205.68599783  energy(sigma->0) =     -205.68848624
  exchange ACFDT corr.  =         0.00000000  see jH, gK, PRB 81, 115126


--------------------------------------------------------------------------------------------------------




--------------------------------------- Iteration      1(  23)  ---------------------------------------


    POTLOK:  cpu time    0.2987: real time    4.2261
    SETDIJ:  cpu time    0.9185: real time    0.9635
     EDDAV:  cpu time   17.8788: real time   18.1273
       DOS:  cpu time    0.0012: real time    0.8662
    CHARGE:  cpu time    0.0684: real time    0.3477
    MIXING:  cpu time    0.0013: real time    0.0313
    --------------------------------------------
      LOOP:  cpu time   19.1667: real time   23.8365

 eigenvalue-minimisations  :   556
 total energy-change (2. order) :-0.9277646E-06  (-0.7076833E-05)
 number of electron     564.0000012 magnetization 
 augmentation part      143.8421004 magnetization 

 Free energy of the ion-electron system (eV)
  ---------------------------------------------------
  alpha Z        PSCENC =      1482.04539224
  Ewald energy   TEWEN  =    -31949.31950301
  -Hartree energ DENC   =    -16183.06217313
  -exchange      EXHF   =      1500.77798312
  -V(xc)+E(xc)   XCENC  =      -595.50340552
  PAW double counting   =    150233.19051091  -148345.14662787
  entropy T*S    EENTRO =        -0.00500199
  eigenvalues    EBANDS =     -3487.04601918
  atomic energy  EATOM  =     47138.37786884
  Solvation  Ediel_sol  =         0.00000000
  ---------------------------------------------------
  free energy    TOTEN  =      -205.69097559 eV

  energy without entropy =     -205.68597360  energy(sigma->0) =     -205.68847460
  exchange ACFDT corr.  =         0.00000000  see jH, gK, PRB 81, 115126


--------------------------------------------------------------------------------------------------------




--------------------------------------- Iteration      1(  24)  ---------------------------------------


    POTLOK:  cpu time    0.2546: real time    1.2996
    SETDIJ:  cpu time    0.9216: real time    0.9714
     EDDAV:  cpu time   18.2030: real time   18.6162
       DOS:  cpu time    0.0009: real time    0.1115
    --------------------------------------------
      LOOP:  cpu time   19.3801: real time   21.1567

 eigenvalue-minimisations  :   508
[...]


 VOLUME and BASIS-vectors are now :
 -----------------------------------------------------------------------------
  energy-cutoff  :      450.00
  volume of cell :     2241.29
      direct lattice vectors                 reciprocal lattice vectors
    13.086768000  0.000000000  0.000000000     0.076413061  0.000000000  0.000000000
     0.000000000 13.086768000  0.000000000     0.000000000  0.076413061  0.000000000
     0.000000000  0.000000000 13.086768000     0.000000000  0.000000000  0.076413061

  length of vectors
    13.086768000 13.086768000 13.086768000     0.076413061  0.076413061  0.076413061


 FORCES acting on ions
    electron-ion (+dipol)            ewald-force                    non-local-force                 convergence-correction
 -----------------------------------------------------------------------------------------------
   -.493E+00 0.969E+00 0.379E+00   0.514E+00 -.959E+00 -.380E+00   0.769E-02 -.394E-01 -.112E-01   0.153E-03 -.344E-03 0.120E-03
   -.552E+00 -.239E+01 0.196E-01   0.542E+00 0.235E+01 -.290E-01   0.361E-01 -.359E-04 -.565E-02   -.327E-04 -.307E-03 -.578E-03
   0.745E-01 -.393E+00 -.378E+00   -.447E-01 0.427E+00 0.365E+00   -.501E-02 -.863E-01 0.276E-01   0.410E-06 0.423E-03 0.178E-03
   0.264E+00 0.309E+00 0.230E+00   -.284E+00 -.309E+00 -.230E+00   0.562E-01 -.383E-01 -.121E-01   0.133E-03 0.250E-03 -.595E-03
   0.121E+01 0.262E+01 -.301E+00   -.120E+01 -.251E+01 0.297E+00   0.104E-01 -.155E+00 -.507E-02   0.775E-03 0.216E-03 0.462E-03
   0.550E-01 -.677E+00 0.218E+00   -.731E-01 0.698E+00 -.211E+00   0.415E-01 -.639E-01 -.235E-01   -.655E-04 -.269E-03 -.734E-03
   0.547E+00 -.833E+00 -.247E+00   -.530E+00 0.917E+00 0.261E+00   0.216E-01 -.112E+00 -.305E-01   0.506E-03 0.709E-05 0.277E-03
   -.133E+02 0.283E+02 0.280E+02   0.123E+02 -.293E+02 -.290E+02   0.917E+00 0.902E+00 0.972E+00   -.432E-03 0.102E-04 -.383E-03
   0.119E+02 0.275E+02 -.277E+02   -.109E+02 -.285E+02 0.287E+02   -.926E+00 0.939E+00 -.942E+00   -.278E-03 -.318E-03 0.423E-04
   0.857E+01 -.292E+02 0.294E+02   -.773E+01 0.302E+02 -.303E+02   -.819E+00 -.872E+00 0.860E+00   -.558E-03 0.659E-04 -.579E-03
   -.963E+01 -.291E+02 -.298E+02   0.878E+01 0.300E+02 0.307E+02   0.810E+00 -.882E+00 -.820E+00   0.153E-03 -.261E-03 0.500E-03
   0.606E+01 0.802E+01 0.810E+01   -.612E+01 -.811E+01 -.824E+01   0.475E-01 0.787E-01 0.122E+00   0.173E-04 0.345E-03 -.232E-03
   -.460E+01 0.813E+01 -.789E+01   0.463E+01 -.821E+01 0.800E+01   -.244E-01 0.634E-01 -.116E+00   -.498E-03 -.974E-04 0.315E-05
   -.329E+01 -.682E+01 0.736E+01   0.334E+01 0.703E+01 -.751E+01   -.230E-01 -.200E+00 0.108E+00   0.304E-03 -.846E-04 0.313E-04
   0.403E+01 -.696E+01 -.663E+01   -.411E+01 0.717E+01 0.678E+01   0.107E+00 -.175E+00 -.123E+00   -.227E-03 0.987E-04 -.130E-04
   0.292E+02 -.469E+01 0.324E+02   -.300E+02 0.427E+01 -.331E+02   0.762E+00 0.367E+00 0.736E+00   0.279E-03 -.346E-05 0.583E-03
   0.270E+02 0.961E+01 -.308E+02   -.279E+02 -.889E+01 0.317E+02   0.925E+00 -.677E+00 -.851E+00   -.142E-03 -.439E-03 0.811E-03
   0.559E+01 0.422E+01 0.671E+01   -.582E+01 -.424E+01 -.683E+01   0.235E+00 -.612E-02 0.873E-01   -.296E-03 0.385E-04 -.300E-03
   0.556E+01 -.692E+01 -.677E+01   -.575E+01 0.699E+01 0.686E+01   0.229E+00 -.771E-01 -.689E-01   -.336E-03 0.343E-03 0.175E-03
   -.281E+02 0.999E+01 0.316E+02   0.291E+02 -.923E+01 -.325E+02   -.931E+00 -.708E+00 0.880E+00   0.225E-03 -.174E-03 -.285E-03
   -.293E+02 -.482E+01 -.329E+02   0.301E+02 0.442E+01 0.336E+02   -.748E+00 0.367E+00 -.674E+00   0.674E-03 0.394E-03 0.202E-03
   -.539E+01 -.676E+01 0.670E+01   0.558E+01 0.685E+01 -.680E+01   -.155E+00 -.141E+00 0.939E-01   0.551E-03 0.317E-03 -.647E-03
   -.507E+01 0.448E+01 -.652E+01   0.528E+01 -.448E+01 0.663E+01   -.166E+00 -.314E-01 -.938E-01   0.280E-03 -.371E-04 0.983E-04
   0.274E+02 0.317E+02 -.846E+01   -.283E+02 -.326E+02 0.785E+01   0.905E+00 0.815E+00 0.572E+00   -.191E-03 0.285E-03 -.736E-03
   0.643E+01 0.677E+01 0.614E+01   -.660E+01 -.683E+01 -.617E+01   0.186E+00 0.278E-01 0.160E-01   0.224E-03 0.236E-03 0.106E-02
   0.285E+02 -.323E+02 0.572E+01   -.293E+02 0.331E+02 -.519E+01   0.828E+00 -.733E+00 -.492E+00   -.661E-03 -.375E-03 -.124E-03
   0.546E+01 -.655E+01 -.494E+01   -.567E+01 0.670E+01 0.499E+01   0.215E+00 -.204E+00 -.403E-01   0.387E-03 -.136E-03 0.330E-03
   -.275E+02 0.311E+02 0.897E+01   0.284E+02 -.319E+02 -.833E+01   -.867E+00 0.805E+00 -.589E+00   0.202E-03 0.183E-03 -.649E-03
   -.564E+01 0.739E+01 -.713E+01   0.584E+01 -.743E+01 0.716E+01   -.193E+00 0.151E-01 -.319E-01   -.327E-03 0.155E-03 0.138E-03
   -.290E+02 -.316E+02 -.611E+01   0.298E+02 0.324E+02 0.558E+01   -.796E+00 -.764E+00 0.489E+00   -.259E-03 0.218E-03 -.691E-03
   -.471E+01 -.573E+01 0.450E+01   0.494E+01 0.591E+01 -.456E+01   -.173E+00 -.185E+00 0.193E-01   -.304E-03 0.527E-04 0.527E-03
   0.203E+01 -.963E+00 0.144E+02   -.213E+01 0.115E+01 -.149E+02   0.878E-01 -.176E+00 0.436E+00   -.106E-03 0.596E-04 0.863E-04
   0.660E+02 0.672E+02 -.678E+02   -.693E+02 -.712E+02 0.719E+02   0.308E+01 0.370E+01 -.377E+01   -.267E-04 0.636E-04 -.250E-04
   0.609E+01 -.231E+01 0.284E+01   -.620E+01 0.238E+01 -.298E+01   0.104E+00 -.753E-01 0.121E+00   0.607E-04 -.198E-03 -.125E-03
   0.289E+01 -.135E+02 0.350E+00   -.298E+01 0.139E+02 -.476E+00   0.808E-01 -.363E+00 0.120E+00   -.112E-03 -.165E-03 -.806E-04
   -.189E+01 0.585E+01 0.319E+01   0.201E+01 -.611E+01 -.345E+01   -.108E+00 0.235E+00 0.236E+00   0.187E-04 0.195E-06 0.490E-04
   -.135E+02 0.179E+01 -.244E+01   0.139E+02 -.177E+01 0.255E+01   -.382E+00 -.123E-01 -.978E-01   0.109E-03 0.225E-03 0.320E-04
   -.197E+01 -.430E+01 0.273E+01   0.198E+01 0.442E+01 -.284E+01   -.134E-01 -.115E+00 0.103E+00   0.146E-04 -.203E-04 0.173E-03
   -.260E+01 -.400E+01 -.561E+01   0.273E+01 0.428E+01 0.584E+01   -.119E+00 -.252E+00 -.211E+00   0.212E-03 -.576E-04 -.157E-03
   0.157E+01 0.141E+02 -.906E+00   -.166E+01 -.146E+02 0.103E+01   0.822E-01 0.493E+00 -.121E+00   -.107E-03 0.219E-03 -.491E-03
   0.543E+01 0.111E+01 -.177E+01   -.541E+01 -.120E+01 0.194E+01   -.194E-01 0.806E-01 -.165E+00   0.208E-03 -.428E-04 0.494E-03
   0.640E+02 -.658E+02 0.649E+02   -.668E+02 0.695E+02 -.684E+02   0.259E+01 -.336E+01 0.324E+01   -.215E-03 -.226E-03 -.289E-03
   0.129E+01 0.820E+00 -.134E+02   -.132E+01 -.932E+00 0.139E+02   0.302E-01 0.106E+00 -.413E+00   -.365E-05 -.223E-04 0.407E-03
   -.160E+01 0.288E+01 0.620E+01   0.174E+01 -.317E+01 -.641E+01   -.129E+00 0.264E+00 0.197E+00   0.110E-03 -.159E-03 -.121E-03
   -.265E+01 0.161E+01 -.391E+01   0.267E+01 -.168E+01 0.404E+01   -.165E-01 0.624E-01 -.126E+00   0.433E-04 0.137E-04 0.225E-03
   -.142E+02 -.278E+01 0.180E+01   0.147E+02 0.296E+01 -.182E+01   -.441E+00 -.172E+00 0.182E-01   0.181E-04 0.108E-05 -.270E-04
   -.402E+01 -.623E+01 -.432E+01   0.428E+01 0.653E+01 0.458E+01   -.243E+00 -.278E+00 -.242E+00   0.164E-03 -.230E-05 -.629E-04
   0.138E+02 0.311E+01 0.321E+01   -.142E+02 -.326E+01 -.336E+01   0.351E+00 0.140E+00 0.144E+00   -.134E-04 0.237E-03 -.304E-03
   0.235E+01 0.711E+01 -.344E+01   -.251E+01 -.746E+01 0.368E+01   0.151E+00 0.319E+00 -.217E+00   0.497E-04 0.328E-03 0.240E-03
   0.286E+01 -.435E+01 0.628E+01   -.297E+01 0.462E+01 -.659E+01   0.107E+00 -.248E+00 0.282E+00   -.134E-03 -.422E-04 -.138E-03
   0.524E+00 -.411E+01 -.294E+01   -.391E+00 0.423E+01 0.305E+01   -.121E+00 -.116E+00 -.102E+00   -.991E-04 -.116E-03 0.293E-03
   -.661E+02 0.676E+02 0.677E+02   0.693E+02 -.715E+02 -.717E+02   -.301E+01 0.363E+01 0.376E+01   -.570E-05 -.156E-04 -.262E-03
   -.371E+01 -.751E+00 -.132E+02   0.395E+01 0.907E+00 0.135E+02   -.219E+00 -.142E+00 -.357E+00   -.328E-04 -.631E-04 0.467E-03
   -.247E+01 -.126E+02 0.684E+00   0.255E+01 0.129E+02 -.627E+00   -.660E-01 -.263E+00 -.573E-01   0.431E-04 -.451E-03 -.135E-03
   -.566E+01 -.237E+01 -.188E+01   0.573E+01 0.252E+01 0.197E+01   -.652E-01 -.142E+00 -.816E-01   -.117E-03 -.203E-03 0.208E-03
   0.300E+01 0.102E+01 0.290E+01   -.303E+01 -.106E+01 -.299E+01   0.344E-01 0.362E-01 0.854E-01   0.399E-04 -.352E-05 0.133E-03
   0.309E+01 0.437E+01 -.731E+01   -.331E+01 -.472E+01 0.762E+01   0.205E+00 0.321E+00 -.286E+00   -.328E-03 -.212E-03 -.283E-03
   0.393E+01 -.564E+01 0.374E+01   -.413E+01 0.580E+01 -.399E+01   0.190E+00 -.161E+00 0.230E+00   0.213E-03 -.213E-03 0.101E-03
   0.149E+02 -.276E+01 -.192E+01   -.154E+02 0.294E+01 0.195E+01   0.457E+00 -.167E+00 -.225E-01   -.631E-04 0.185E-03 -.348E-03
   -.661E+01 0.857E+00 0.461E+00   0.667E+01 -.994E+00 -.507E+00   -.585E-01 0.124E+00 0.427E-01   -.296E-04 0.242E-03 0.127E-03
   -.164E+01 0.141E+02 0.126E+01   0.172E+01 -.147E+02 -.137E+01   -.761E-01 0.483E+00 0.987E-01   0.123E-03 -.387E-04 -.765E-04
   -.251E+01 -.475E+00 0.144E+02   0.257E+01 0.479E+00 -.149E+02   -.692E-01 -.279E-02 0.460E+00   -.171E-03 0.552E-04 0.224E-03
   -.636E+02 -.654E+02 -.661E+02   0.664E+02 0.691E+02 0.697E+02   -.258E+01 -.340E+01 -.334E+01   0.224E-03 0.232E-03 0.476E-04
 -----------------------------------------------------------------------------------------------
   0.151E+00 0.542E+00 -.106E+00   0.284E-12 -.171E-12 0.142E-13   0.321E+00 -.122E+01 0.152E-01   0.347E-03 0.403E-03 -.625E-03
 
 
 POSITION                                       TOTAL-FORCE (eV/Angst)
 -----------------------------------------------------------------------------------
      0.03063     13.05719      6.52832         0.001873     -0.001931     -0.001400
      0.02434      6.50899     13.07596         0.000030     -0.000553     -0.000033
      0.01831      6.51124      6.55119         0.000134      0.000925     -0.000764
      6.57308     13.05721     13.07140         0.000150     -0.000595     -0.000350
      6.55972     13.04663      6.53455         0.001141     -0.000450      0.001155
      6.56116      6.50852     13.07544        -0.000719      0.000084      0.000644
      6.57082      6.51396      6.53423        -0.001049      0.001299      0.000457
     12.99474      3.19389      3.21212        -0.000931     -0.000992      0.000188
      0.13142      3.19429      9.87419        -0.002097     -0.001812     -0.002130
      0.08666      9.83661      3.20585        -0.000811      0.000358     -0.000762
     13.01244      9.85382      9.87462         0.000491      0.000385      0.001658
      6.53657      3.21707      3.24870        -0.000729      0.000393     -0.000358
      6.56325      3.21972      9.82453        -0.000760     -0.001414      0.000179
      6.57015      9.81236      3.23696        -0.000600     -0.000088      0.000572
      6.56778      9.83422      9.83497        -0.000497      0.000131      0.001233
      3.20325     13.00373      3.21090         0.000725     -0.000050      0.001812
      3.19118      0.04241      9.86265         0.000430     -0.003731      0.001285
      3.28305      6.51434      3.24073        -0.000065      0.000171      0.000428
      3.31088      6.53298      9.82483        -0.001204      0.000820      0.000238
      9.91391      0.05483      3.21124         0.000619     -0.001199     -0.000099
      9.93451     13.03111      9.87216         0.000926      0.000823     -0.000092
      9.82859      6.50807      3.26711         0.001214      0.000548     -0.001268
      9.84100      6.51548      9.82697         0.000411      0.000361      0.000678
      3.19767      3.17274     13.02449        -0.001319     -0.000727      0.000189
      3.29315      3.23539      6.52897        -0.000127     -0.000305      0.001449
      3.20805      9.85080      0.03679        -0.001338     -0.000534      0.002366
      3.28143      9.77827      6.54689         0.000921     -0.000869     -0.000510
      9.91333      3.19971      0.06223         0.000216     -0.000092      0.000517
      9.82802      3.22352      6.55550        -0.001030     -0.000133     -0.000601
      9.91051      9.84262     13.04417        -0.002853     -0.000612     -0.000422
      9.84494      9.80984      6.52457        -0.000746     -0.000272      0.000386
      1.64937      1.62171      4.87909        -0.006858      0.000427     -0.003904
      1.51412      1.47145     11.57299         0.003507     -0.006417      0.000822
      1.65246      8.14525      4.89587         0.000086     -0.001635     -0.006634
      1.64970      8.16411     11.43597        -0.002253      0.005175      0.002213
      8.19362      1.59895      4.89274         0.002693     -0.000321     -0.003159
      8.23340      1.60912     11.45566         0.006285      0.007212     -0.002796
      8.18930      8.16445      4.89792        -0.000654     -0.001311      0.004333
      8.20260      8.17108     11.45896         0.000081      0.004463      0.000108
      1.64561      4.85638      1.63538         0.000844      0.000642     -0.002373
      1.68090      4.88727      8.18030         0.000534     -0.003804     -0.003685
      1.52442     11.52426      1.51707        -0.002172      0.003389      0.001701
      1.64719     11.40999      8.18333        -0.002470      0.004564     -0.002590
      8.19067      4.85956      1.63209        -0.002357     -0.003020     -0.002595
      8.19072      4.87455      8.18709        -0.001817     -0.001004     -0.002499
      8.22723     11.44284      1.63018        -0.002149     -0.003906     -0.001930
      8.22633     11.44692      8.19357         0.003790      0.002696      0.002089
      4.89750      1.58443      1.61686         0.003400      0.005590      0.000298
      4.91717      1.59000      8.18190         0.003502     -0.002031      0.004712
      4.91760      8.16975      1.61256         0.002899     -0.000581     -0.000206
      4.95458      8.16492      8.18290         0.000700     -0.002493     -0.003672
     11.59108      1.49503      1.51302         0.004999     -0.001600     -0.000410
     11.49646      1.61704      8.18552        -0.000849      0.007627      0.005950
     11.46460      8.14340      1.63716         0.002576      0.000907     -0.002934
     11.45794      8.16260      8.17892        -0.000482     -0.002428     -0.002863
      4.92898      4.88215      4.89147        -0.000330      0.003271      0.000858
      4.91384      4.85262     11.45668        -0.002134     -0.000563     -0.001530
      4.90887     11.41752      4.88986        -0.000984     -0.002833      0.002891
      4.89373     11.44472     11.44924         0.001518     -0.000231      0.004642
     11.45257      4.87299      4.91888         0.001657      0.001743      0.001534
     11.47377      4.86153     11.44049        -0.001024     -0.006346     -0.000029
     11.47089     11.42902      4.88088        -0.007650      0.001456      0.005412
     11.58739     11.53579     11.57661         0.002707      0.001424     -0.000397
 -----------------------------------------------------------------------------------
    total drift:                                0.080223     -0.123500     -0.052496


--------------------------------------------------------------------------------------------------------



  FREE ENERGIE OF THE ION-ELECTRON SYSTEM (eV)
  ---------------------------------------------------
  free  energy   TOTEN  =      -205.69153679 eV

  energy  without entropy=     -205.68655955  energy(sigma->0) =     -205.68904817
 
 d Force = 0.7985525E-08[-0.170E-07, 0.330E-07]  d Energy =-0.2235902E-07 0.303E-07
 d Force =-0.2862818E-03[-0.286E-03,-0.286E-03]  d Ewald  =-0.2862818E-03-0.764E-10


--------------------------------------------------------------------------------------------------------


    POTLOK:  cpu time    1.1759: real time    1.1870


--------------------------------------------------------------------------------------------------------




--------------------------------------------------------------------------------------------------------


  
 reached required accuracy - stopping structural energy minimisation
     LOOP+:  cpu time   73.5067: real time   74.3814
    4ORBIT:  cpu time    0.0000: real time    0.0000
 


 total charge     
 
# of ion       s       p       d       tot
------------------------------------------
    1        0.420   0.294   9.589  10.302
    2        0.419   0.293   9.589  10.302
    3        0.420   0.292   9.590  10.302
    4        0.420   0.295   9.589  10.304
    5        0.422   0.291   9.588  10.302
    6        0.422   0.291   9.588  10.301
    7        0.421   0.295   9.589  10.305
    8        0.423   0.292   9.588  10.303
    9        0.423   0.290   9.588  10.301
   10        0.422   0.292   9.588  10.302
   11        0.423   0.292   9.588  10.302
   12        0.421   0.295   9.589  10.305
   13        0.421   0.294   9.589  10.303
   14        0.421   0.294   9.589  10.304
   15        0.421   0.293   9.589  10.303
   16        0.423   0.289   9.588  10.300
   17        0.424   0.290   9.588  10.302
   18        0.421   0.294   9.589  10.304
   19        0.421   0.294   9.589  10.304
   20        0.424   0.292   9.588  10.304
   21        0.423   0.290   9.588  10.301
   22        0.421   0.294   9.589  10.304
   23        0.420   0.293   9.589  10.303
   24        0.423   0.289   9.588  10.300
   25        0.420   0.294   9.589  10.303
   26        0.423   0.291   9.588  10.302
   27        0.421   0.294   9.589  10.304
   28        0.424   0.291   9.588  10.303
   29        0.421   0.294   9.589  10.304
   30        0.423   0.291   9.588  10.302
   31        0.421   0.294   9.589  10.305
   32        1.290   2.291   0.017   3.598
   33        1.311   2.229   0.018   3.557
   34        1.291   2.291   0.017   3.599
   35        1.290   2.292   0.017   3.599
   36        1.291   2.288   0.017   3.596
   37        1.291   2.289   0.017   3.597
   38        1.291   2.292   0.017   3.600
   39        1.292   2.284   0.017   3.593
   40        1.290   2.292   0.017   3.599
   41        1.290   2.293   0.017   3.601
   42        1.310   2.223   0.018   3.551
   43        1.290   2.292   0.017   3.599
   44        1.292   2.286   0.017   3.595
   45        1.291   2.293   0.017   3.601
   46        1.290   2.290   0.017   3.598
   47        1.292   2.283   0.017   3.593
   48        1.291   2.289   0.017   3.596
   49        1.291   2.287   0.017   3.595
   50        1.292   2.284   0.017   3.593
   51        1.291   2.292   0.017   3.600
   52        1.310   2.231   0.018   3.559
   53        1.290   2.291   0.017   3.598
   54        1.290   2.292   0.017   3.599
   55        1.291   2.291   0.017   3.600
   56        1.291   2.293   0.017   3.601
   57        1.292   2.286   0.017   3.595
   58        1.292   2.283   0.017   3.592
   59        1.290   2.290   0.017   3.597
   60        1.290   2.294   0.018   3.602
   61        1.290   2.292   0.017   3.599
   62        1.290   2.293   0.017   3.600
   63        1.310   2.223   0.018   3.550
--------------------------------------------------
tot         54.450  82.089 297.803 434.342
 

 total amount of memory used by VASP MPI-rank0    77585. kBytes
=======================================================================

   base      :      30000. kBytes
   nonlr-proj:       3332. kBytes
   fftplans  :       6877. kBytes
   grid      :      11280. kBytes
   one-center:         46. kBytes
   HF        :        129. kBytes
   wavefun   :       2812. kBytes
   fock_wrk  :      23109. kBytes
 
  
  
 General timing and accounting informations for this job:
 ========================================================
  
                  Total CPU time used (sec):     3162.976
                            User time (sec):     3135.724
                          System time (sec):       27.252
                         Elapsed time (sec):     3598.639
  
                   Maximum memory used (kb):      302768.
                   Average memory used (kb):           0.
  
                          Minor page faults:       231727
                          Major page faults:            0
                 Voluntary context switches:        35279
