------------------------------------------------------------
          Invoking FHI-aims ...

          When using FHI-aims, please cite the following reference:

            Volker Blum, Ralf Gehrke, Felix Hanke, Paula Havu,
            Ville Havu, Xinguo Ren, Karsten Reuter, and Matthias Scheffler,
            'Ab Initio Molecular Simulations with Numeric Atom-Centered Orbitals',
            Computer Physics Communications 180, 2175-2196 (2009)

          In addition, many other developments in FHI-aims are likely important for
          your particular application. A partial list of references is given at the end of
          this file. Thank you for giving credit to the authors of these developments.

          For any questions about FHI-aims, please visit our slack channel at

            https://fhi-aims.slack.com

          and our main development and support site at

            https://aims-git.rz-berlin.mpg.de .

          The latter site, in particular, has a wiki to collect information, as well
          as an issue tracker to log discussions, suggest improvements, and report issues
          or bugs. https://aims-git.rz-berlin.mpg.de is also the main development site
          of the project and all new and updated code versions can be obtained there.
          Please send an email to aims-coordinators@fhi-berlin.mpg.de and we will add
          you to these sites. They are for you and everyone is welcome there.

------------------------------------------------------------



  Date     :  20210825, Time     :  114310.988
  Time zero on CPU 1             :   0.185537000000000E+00  s.
  Internal wall clock time zero  :           399123790.988  s.

  FHI-aims created a unique identifier for this run for later identification
  aims_uuid : 8953FE60-843A-4510-AA5E-22EE38B06A69

  Build configuration of the current instance of FHI-aims
  -------------------------------------------------------
  FHI-aims version      : 210716.1
  Commit number         : 26747aa8a
  CMake host system     : Darwin-19.6.0
  CMake version         : 3.19.3
  Fortran compiler      : /usr/local/bin/mpif90 (GNU) version 10.2.0
  Fortran compiler flags: -O3 -ffree-line-length-none -w -fallow-argument-mismatch
  C compiler            : /usr/local/bin/mpicc (AppleClang) version 11.0.3.11030032
  C compiler flags      : -O3
  Using MPI
  Using ScaLAPACK
  Using LibXC
  Using i-PI
  Using RLSY
  Linking against: /usr/local/Cellar/openblas/0.3.13/lib/liblapack.dylib
                   /usr/local/lib/libscalapack.dylib
                   /usr/local/Cellar/openblas/0.3.13/lib/libopenblas.dylib

  Using        2 parallel tasks.
  Task        0 on host sebastians-mbp.rz-berlin.mpg.de reporting.
  Task        1 on host sebastians-mbp.rz-berlin.mpg.de reporting.

  Performing system and environment tests:
  *** Environment variable OMP_NUM_THREADS is not set
  *** For performance reasons you might want to set it to 1
  | Checking for ScaLAPACK...
  | Testing pdtran()...
  | All pdtran() tests passed.

  Obtaining array dimensions for all initial allocations:
  
  -----------------------------------------------------------------------
  Parsing control.in (first pass over file, find array dimensions only).
  The contents of control.in will be repeated verbatim below
  unless switched off by setting 'verbatim_writeout .false.' .
  in the first line of control.in .
  -----------------------------------------------------------------------
  
  xc              pbe
  relativistic    atomic_zora scalar
  k_grid          8 8 8
  relax_geometry  bfgs 5e-3
  relax_unit_cell full
  ################################################################################
  #
  #  FHI-aims code project
  #  VB, Fritz-Haber Institut, 2009
  #
  #  Suggested "light" defaults for Si atom (to be pasted into control.in file)
  #  Be sure to double-check any results obtained with these settings for post-processing,
  #  e.g., with the "tight" defaults and larger basis sets.
  #
  #  2020/09/08 Added f function to "light" after reinspection of Delta test outcomes.
  #             This was done for all of Al-Cl and is a tricky decision since it makes
  #             "light" calculations measurably more expensive for these elements.
  #             Nevertheless, outcomes for P, S, Cl (and to some extent, Si) appear
  #             to justify this choice.
  #
  ################################################################################
    species        Si
  #     global species definitions
      nucleus             14
      mass                28.0855
  #
      l_hartree           4
  #
      cut_pot             3.5          1.5  1.0
      basis_dep_cutoff    1e-4
  #
      radial_base         42 5.0
      radial_multiplier   1
      angular_grids       specified
        division   0.5866   50
        division   0.9616  110
        division   1.2249  194
        division   1.3795  302
  #      division   1.4810  434
  #      division   1.5529  590
  #      division   1.6284  770
  #      division   1.7077  974
  #      division   2.4068 1202
  #      outer_grid   974
        outer_grid 302
  ################################################################################
  #
  #  Definition of "minimal" basis
  #
  ################################################################################
  #     valence basis states
      valence      3  s   2.
      valence      3  p   2.
  #     ion occupancy
      ion_occ      3  s   1.
      ion_occ      3  p   1.
  ################################################################################
  #
  #  Suggested additional basis functions. For production calculations,
  #  uncomment them one after another (the most important basis functions are
  #  listed first).
  #
  #  Constructed for dimers: 1.75 A, 2.0 A, 2.25 A, 2.75 A, 3.75 A
  #
  ################################################################################
  #  "First tier" - improvements: -571.96 meV to -37.03 meV
       hydro 3 d 4.2
       hydro 2 p 1.4
       hydro 4 f 6.2
       ionic 3 s auto
  #  "Second tier" - improvements: -16.76 meV to -3.03 meV
  #     hydro 3 d 9
  #     hydro 5 g 9.4
  #     hydro 4 p 4
  #     hydro 1 s 0.65
  #  "Third tier" - improvements: -3.89 meV to -0.60 meV
  #     ionic 3 d auto
  #     hydro 3 s 2.6
  #     hydro 4 f 8.4
  #     hydro 3 d 3.4
  #     hydro 3 p 7.8
  #  "Fourth tier" - improvements: -0.33 meV to -0.11 meV
  #     hydro 2 p 1.6
  #     hydro 5 g 10.8
  #     hydro 5 f 11.2
  #     hydro 3 d 1
  #     hydro 4 s 4.5
  #  Further basis functions that fell out of the optimization - noise
  #  level... < -0.08 meV
  #     hydro 4 d 6.6
  #     hydro 5 g 16.4
  #     hydro 4 d 9
  
  -----------------------------------------------------------------------
  Completed first pass over input file control.in .
  -----------------------------------------------------------------------
  
  
  -----------------------------------------------------------------------
  Parsing geometry.in (first pass over file, find array dimensions only).
  The contents of geometry.in will be repeated verbatim below
  unless switched off by setting 'verbatim_writeout .false.' .
  in the first line of geometry.in .
  -----------------------------------------------------------------------
  
  lattice_vector 0.00000 2.71500 2.71500
  lattice_vector 2.71500 0.00000 2.71500
  lattice_vector 2.71500 2.71500 0.00000
  
  atom_frac 0.00000 0.00000 0.00000 Si
  atom_frac 0.25000 0.25000 0.25000 Si
  
  -----------------------------------------------------------------------
  Completed first pass over input file geometry.in .
  -----------------------------------------------------------------------
  

  Basic array size parameters:
  | Number of species                 :        1
  | Number of atoms                   :        2
  | Number of lattice vectors         :        3
  | Max. basis fn. angular momentum   :        3
  | Max. atomic/ionic basis occupied n:        3
  | Max. number of basis fn. types    :        3
  | Max. radial fns per species/type  :        5
  | Max. logarithmic grid size        :     1346
  | Max. radial integration grid size :       42
  | Max. angular integration grid size:      302
  | Max. angular grid division number :        8
  | Radial grid for Hartree potential :     1346
  | Number of spin channels           :        1

------------------------------------------------------------
          Reading file control.in.
------------------------------------------------------------
  XC: Using PBE gradient-corrected functionals.
  Scalar relativistic treatment of kinetic energy: on-site free-atom approximation to ZORA.
  Found k-point grid:         8         8         8
  Geometry relaxation: Modified BFGS - TRM (trust radius method) for lattice optimization.
  Convergence accuracy for geometry relaxation: Maximum force <   0.500000E-02 eV/A.

  Reading configuration options for species Si                  .
  | Found nuclear charge :  14.0000
  | Found atomic mass :    28.085500000000000      amu
  | Found l_max for Hartree potential  :   4
  | Found cutoff potl. onset [A], width [A], scale factor :    3.50000    1.50000    1.00000
  | Threshold for basis-dependent cutoff potential is   0.100000E-03
  | Found data for basic radial integration grid :    42 points, outermost radius =    5.000 A
  | Found multiplier for basic radial grid :   1
  | Found angular grid specification: user-specified.
  | Specified grid contains     5 separate shells.
  | Check grid settings after all constraints further below.
  | Found free-atom valence shell :  3 s   2.000
  | Found free-atom valence shell :  3 p   2.000
  | Found free-ion valence shell :  3 s   1.000
  | Found free-ion valence shell :  3 p   1.000
  | Found hydrogenic basis function :  3 d   4.200
  | Found hydrogenic basis function :  2 p   1.400
  | Found hydrogenic basis function :  4 f   6.200
  | Found ionic basis function :  3 s , default cutoff radius.
  Species Si                  : Missing cutoff potential type.
  Defaulting to exp(1/x)/(1-x)^2 type cutoff potential.
  Species Si: No 'logarithmic' tag. Using default grid for free atom:
  | Default logarithmic grid data [bohr] : 0.1000E-03 0.1000E+03 0.1012E+01
  | Will include ionic basis functions of  2.0-fold positive Si                   ion.
  Species Si: On-site basis accuracy parameter (for Gram-Schmidt orthonormalisation) not specified.
  Using default value basis_acc =  0.1000000E-03.
  Species Si                  : Using default innermost maximum threshold i_radial=  2 for radial functions.
  Species Si                  : Default cutoff onset for free atom density etc. : 0.35000000E+01 AA.
  Species Si                  : Basic radial grid will be enhanced according to radial_multiplier =   1, to contain    42 grid points.

  Finished reading input file 'control.in'.

------------------------------------------------------------


------------------------------------------------------------
          Reading geometry description geometry.in.
------------------------------------------------------------
  | The smallest distance between any two atoms is         2.35125897 AA.
  | The first atom of this pair is atom number                      1 .
  | The second atom of this pair is atom number                     2 .
  | Wigner-Seitz cell of the first atom image           0     0     0 .
  | (The Wigner-Seitz cell of the second atom is 0 0 0  by definition.)

  Symmetry information by spglib:
  | Precision set to  0.1E-04
  | Number of Operations  : 48
  | Space group           : 227
  | International         : Fd-3m
  | Schoenflies           : Oh^7
  Input structure read successfully.
  The structure contains        2 atoms,  and a total of         28.000 electrons.

  Input geometry:
  | Unit cell:
  |        0.00000000        2.71500000        2.71500000
  |        2.71500000        0.00000000        2.71500000
  |        2.71500000        2.71500000        0.00000000
  | Atomic structure:
  |       Atom                x [A]            y [A]            z [A]
  |    1: Species Si            0.00000000        0.00000000        0.00000000
  |    2: Species Si            1.35750000        1.35750000        1.35750000

  Lattice parameters for 3D lattice (in Angstroms) :     3.839590    3.839590    3.839590
  Angle(s) between unit vectors (in degrees)       :    60.000000   60.000000   60.000000


  Quantities derived from the lattice vectors:
  | Reciprocal lattice vector 1: -1.157124  1.157124  1.157124
  | Reciprocal lattice vector 2:  1.157124 -1.157124  1.157124
  | Reciprocal lattice vector 3:  1.157124  1.157124 -1.157124
  | Unit cell volume                               :   0.400258E+02  A^3

  Fractional coordinates:
                         L1                L2                L3
       atom_frac         0.00000000        0.00000000        0.00000000  Si
       atom_frac         0.25000000        0.25000000        0.25000000  Si


  Finished reading input file 'control.in'.


------------------------------------------------------------
          Reading geometry description geometry.in.
------------------------------------------------------------

  Consistency checks for stacksize environment parameter are next.

  | Maximum stacksize for task 0: 63 [Mb]
  | Maximum stacksize for task 1: 63 [Mb]
   *** Stacksize is not set to unlimited. This might cause problems...
  | Current stacksize for task 0: 63 [Mb]
  | Current stacksize for task 1: 63 [Mb]

  Consistency checks for the contents of control.in are next.

  MPI_IN_PLACE appears to work with this MPI implementation.
  | Keeping use_mpi_in_place .true. (see manual).
  Target number of points in a grid batch is not set. Defaulting to  100
  Method for grid partitioning is not set. Defaulting to parallel hash+maxmin partitioning.
  Batch size limit is not set. Defaulting to    200
  By default, will store active basis functions for each batch.
  If in need of memory, prune_basis_once .false. can be used to disable this option.
  communication_type for Hartree potential was not specified.
  Defaulting to calc_hartree .
  Defaulting to Pulay charge density mixer.
  Pulay mixer: Number of relevant iterations not set.
  Defaulting to    8 iterations.
  Pulay mixer: Number of initial linear mixing iterations not set.
  Defaulting to    0 iterations.
  Work space size for distributed Hartree potential not set.
  Defaulting to   0.200000E+03 MB.
  Mixing parameter for charge density mixing has not been set.
  Using default: charge_mix_param =     0.0500.
  The mixing parameter will be adjusted in iteration number     2 of the first full s.c.f. cycle only.
  Algorithm-dependent basis array size parameters:
  | n_max_pulay                         :        8
  Maximum number of self-consistency iterations not provided.
  Presetting  1000 iterations.
  Presetting      1001 iterations before the initial mixing cycle
  is restarted anyway using the sc_init_iter criterion / keyword.
  Presetting a factor      1.000 between actual scf density residual
  and density convergence criterion sc_accuracy_rho below which sc_init_iter
  takes no effect.
 * No s.c.f. convergence criteria (sc_accuracy_*) were provided in control.in.
 * The run will proceed with a reasonable default guess, but please check whether.
 * the s.c.f. cycles seem to take too much or too little time.
  No maximum number of relaxation steps, defaulting to     1000
  Default initial Hessian is Lindh matrix (thres = 15.00) plus  0.200000E+01 eV/A^2 times unity.
  No maximum energy tolerance for TRM/BFGS moves, defaulting to   0.100000E-02
  Maximum energy tolerance by which TRM/BFGS trajectory may increase over multiple steps:   0.300000E-02
  No harmonic length scale. Defaulting to   0.250000E-01 A.
  No trust radius initializer. Defaulting to   0.200000E+00 A.
  Unit cell relaxation: Unit cell will be relaxed fully.
  Unit cell relaxation: Analytical stress will be used.
  Analytical stress will be computed.
  Analytical stress calculation: Only the upper triangle is calculated.
                                 Final output is symmetrized.
  Analytical stress calculation: scf convergence accuracy of stress not set.
                                 Analytical stress self-consistency will not be checked explicitly.
                                 Be sure to set other criteria like sc_accuracy_rho tight enough.
  Forces evaluation will include force correction term due to incomplete self-consistency (default).
 * Notice: The s.c.f. convergence criterion sc_accuracy_rho was not provided.
 * We used to stop in this case, and ask the user to provide reasonable
 * scf convergence criteria. However, this led some users to employ criteria
 * that led to extremely long run times, e.g., for simple relaxation.
 * We now preset a default value for sc_accuracy_rho if it is not set.
 * You may still wish to check if this setting is too tight or too loose for your needs.
 * Based on n_atoms and forces and force-correction status, FHI-aims chose sc_accuracy_rho =  0.500000E-06 .
  Force calculation: scf convergence accuracy of forces not set.
  Defaulting to 'sc_accuracy_forces not_checked'.
  Handling of forces: Unphysical translation and rotation will be removed from forces.
  No accuracy limit for integral partition fn. given. Defaulting to  0.1000E-14.
  No threshold value for u(r) in integrations given. Defaulting to  0.1000E-05.
  No occupation type (smearing scheme) given. Defaulting to Gaussian broadening, width =  0.1000E-01 eV.
  The width will be adjusted in iteration number     2 of the first full s.c.f. cycle only.
  S.C.F. convergence parameters will be adjusted in iteration number     2 of the first full s.c.f. cycle only.
  No accuracy for occupation numbers given. Defaulting to  0.1000E-12.
  No threshold value for occupation numbers given. Defaulting to  0.0000E+00.
  No accuracy for fermi level given. Defaulting to  0.1000E-19.
  Maximum # of iterations to find E_F not set. Defaulting to  200.
  Preferred method for the eigenvalue solver ('KS_method') not specified in 'control.in'.
  Defaulting to serial version, LAPACK (via ELSI), since more k-points than CPUs available.
  Will not use alltoall communication since running on < 1024 CPUs.
  Threshold for basis singularities not set.
  Default threshold for basis singularities:  0.1000E-04
  partition_type (choice of integration weights) for integrals was not specified.
  | Using a version of the partition function of Stratmann and coworkers ('stratmann_sparse').
  | At each grid point, the set of atoms used to build the partition table is smoothly restricted to
  | only those atoms whose free-atom density would be non-zero at that grid point.
  Partitioning for Hartree potential was not defined. Using partition_type for integrals.
  | Adjusted default value of keyword multip_moments_threshold to:       0.10000000E-11
  | This value may affect high angular momentum components of the Hartree potential in periodic systems.
  Spin handling was not defined in control.in. Defaulting to unpolarized case.
  Angular momentum expansion for Kerker preconditioner not set explicitly.
  | Using default value of   0
  No explicit requirement for turning off preconditioner.
  | By default, it will be turned off when the charge convergence reaches
  | sc_accuracy_rho  =   0.500000E-06
  No special mixing parameter while Kerker preconditioner is on.
  Using default: charge_mix_param =     0.0500.
  No q(lm)/r^(l+1) cutoff set for long-range Hartree potential.
  | Using default value of  0.100000E-09 .
  | Verify using the multipole_threshold keyword.
  Defaulting to new monopole extrapolation.
  Density update method: automatic selection selected.
  Using density matrix based charge density update.
  Using density matrix based charge density update.
  Using packed matrix style: index .
  Geometry relaxation: A file "geometry.in.next_step" is written out by default after each step.
  | This file contains the geometry of the current relaxation step as well as
  | the current Hessian matrix needed to restart the relaxation algorithm.
  | If you do not want part or all of this information, use the keywords
  | "write_restart_geometry" or "hessian_to_restart_geometry" to switch the output off.
  Defaulting to use time-reversal symmetry for k-point grid.
  Charge integration errors on the 3D integration grid will be compensated
  by explicit normalization and distribution of residual charges.
  Use the "compensate_multipole_errors" flag to change this behaviour.
  Set 'collect_eigenvectors' to be '.true.' for all serial calculations. This is mandatory.
  Set 'collect_eigenvectors' to be '.true.' for KS_method lapack_fast and serial.

  Consistency checks for the contents of geometry.in are next.


  Range separation radius for Ewald summation (hartree_convergence_parameter):      3.88818726 bohr.
  Number of empty states per atom not set in control.in - providing a guess from actual geometry.
  | Total number of empty states used during s.c.f. cycle:        6
  If you use a very high smearing, use empty_states (per atom!) in control.in to increase this value.

  Structure-dependent array size parameters: 
  | Maximum number of distinct radial functions  :        9
  | Maximum number of basis functions            :       50
  | Number of Kohn-Sham states (occupied + empty):       20
------------------------------------------------------------

------------------------------------------------------------
          Preparing all fixed parts of the calculation.
------------------------------------------------------------
  Determining machine precision:
     2.2250738585072014E-308
  Setting up grids for atomic and cluster calculations.

  Creating wave function, potential, and density for free atoms.

  Species: Si

  List of occupied orbitals and eigenvalues:
    n    l              occ      energy [Ha]    energy [eV]
    1    0           2.0000       -65.767597     -1789.6274
    2    0           2.0000        -5.115610      -139.2028
    3    0           2.0000        -0.388877       -10.5819
    2    1           6.0000        -3.500197       -95.2452
    3    1           2.0000        -0.140803        -3.8315


  Adding cutoff potential to free-atom effective potential.
  Creating fixed part of basis set: Ionic, confined, hydrogenic.

  Si                   ion:

  List of free ionic orbitals and eigenvalues:
    n    l      energy [Ha]    energy [eV]
    1    0       -66.641157     -1813.3982
    2    0        -5.964274      -162.2962
    3    0        -1.073878       -29.2217
    2    1        -4.350005      -118.3697
    3    1        -0.776571       -21.1316


  List of ionic basis orbitals and eigenvalues:
    n    l      energy [Ha]    energy [eV]    outer radius [A]
    3    0        -1.073857       -29.2211       4.214062


  Si                   hydrogenic:

  List of hydrogenic basis orbitals: 
    n    l      effective z      eigenvalue [eV]  inner max. [A]     outer max. [A]     outer radius [A]   
    3    2         4.200000       -26.6624           1.139231           1.139231           4.534782
    2    1         1.400000        -6.4613           1.472672           1.472672           4.590560
    4    3         6.200000       -32.6778           1.368518           1.368518           4.534782

  Creating atomic-like basis functions for current effective potential.

  Species Si                  :

  List of atomic basis orbitals and eigenvalues:
    n    l      energy [Ha]    energy [eV]    outer radius [A]
    1    0       -65.767597     -1789.6274       0.789468
    2    0        -5.115610      -139.2028       2.815114
    3    0        -0.388877       -10.5819       4.534782
    2    1        -3.500197       -95.2452       3.259919
    3    1        -0.140803        -3.8315       4.590560

  Assembling full basis from fixed parts.
  | Species Si :   atomic orbital   1 s accepted.
  | Species Si :   atomic orbital   2 s accepted.
  | Species Si :    ionic orbital   3 s accepted.
  | Species Si :   atomic orbital   3 s accepted.
  | Species Si :   atomic orbital   2 p accepted.
  | Species Si :   atomic orbital   3 p accepted.
  | Species Si :    hydro orbital   2 p accepted.
  | Species Si :    hydro orbital   3 d accepted.
  | Species Si :    hydro orbital   4 f accepted.

  Basis size parameters after reduction:
  | Total number of radial functions:        9
  | Total number of basis functions :       50

  Per-task memory consumption for arrays in subroutine allocate_ext:
  |           3.102808MB.
  Testing on-site integration grid accuracy.
  |  Species  Function  <phi|h_atom|phi> (log., in eV)  <phi|h_atom|phi> (rad., in eV)
           1        1              -1789.6273740966              -1789.6266345813
           1        2               -139.2028173376               -139.2028132357
           1        3                -10.2237226190                -10.2235219160
           1        4                  5.6355365073                  5.5558633521 ***
           1        5                -95.2452114632                -95.2452114537
           1        6                 -3.8413965043                 -3.8571292824
           1        7                  6.4035522332                  6.2277973139 ***
           1        8                  6.3860095444                  6.3839142324
           1        9                 19.3722793793                 19.3677446767
 * Note: Onsite integrals marked "***" above are less accurate than
 * onsite_accuracy_threshold =    0.03000 eV. Usually, this is harmless.
 * When in doubt, tighten the "radial" and/or "radial_multiplier" flags to check.

  Preparing densities etc. for the partition functions (integrals / Hartree potential).

  Preparations completed.
  max(cpu_time)          :      0.136 s.
  Wall clock time (cpu1) :      0.147 s.
------------------------------------------------------------

------------------------------------------------------------
          Begin self-consistency loop: Initialization.

          Date     :  20210825, Time     :  114311.203
------------------------------------------------------------

  Initializing index lists of integration centers etc. from given atomic structure:
  Mapping all atomic coordinates to central unit cell.

  Initializing the k-points
  Using symmetry for reducing the k-points
  | k-points reduced from:      512 to      260
  | Number of k-points                             :       260
  The eigenvectors in the calculations are COMPLEX.
  | K-points in task   0:       130
  | K-points in task   1:       130
  | Number of basis functions in the Hamiltonian integrals :      2179
  | Number of basis functions in a single unit cell        :        50
  | Number of centers in hartree potential         :       732
  | Number of centers in hartree multipole         :       318
  | Number of centers in electron density summation:       198
  | Number of centers in basis integrals           :       228
  | Number of centers in integrals                 :       101
  | Number of centers in hamiltonian               :       198
  | Consuming        455 KiB for k_phase.
  | Number of super-cells (origin) [n_cells]                     :        2197
  | Number of super-cells (after PM_index) [n_cells]             :         112
  | Number of super-cells in hamiltonian [n_cells_in_hamiltonian]:         112
  | Size of matrix packed + index [n_hamiltonian_matrix_size] :       89403

  Initializing relaxation algorithms.
  Finished initialization of distributed Hessian storage.
  | Global dimension:        15
  | BLACS block size:         8
  | Number of workers:        2

  | Estimated reciprocal-space cutoff momentum G_max:         2.40094914 bohr^-1 .
  | Reciprocal lattice points for long-range Hartree potential:      58
  Partitioning the integration grid into batches with parallel hashing+maxmin method.
  | Number of batches:      166
  | Maximal batch size:     109
  | Minimal batch size:      51
  | Average batch size:      67.518
  | Standard deviation of batch sizes:      18.362

  Integration load balanced across     2 MPI tasks.
  Work distribution over tasks is as follows:
  Task     0 has       5577 integration points.
  Task     1 has       5631 integration points.
  Initializing partition tables, free-atom densities, potentials, etc. across the integration grid (initialize_grid_storage).
  | initialize_grid_storage: Actual outermost partition radius vs. multipole_radius_free
  | (-- VB: in principle, multipole_radius_free should be larger, hence this output)
  | Species        1: Confinement radius =              4.999999999999999 AA, multipole_radius_free =              5.000694715736543 AA.
  | Species        1: outer_partition_radius set to              5.000694715736543 AA .
  | The sparse table of interatomic distances needs        255.65 kbyte instead of       415.87 kbyte of memory.
  | Net number of integration points:    11208
  | of which are non-zero points    :     9820
  | Numerical average free-atom electrostatic potential    :    -13.13394093 eV
  Renormalizing the initial density to the exact electron count on the 3D integration grid.
  | Initial density: Formal number of electrons (from input files) :      28.0000000000
  | Integrated number of electrons on 3D grid     :      28.0049838157
  | Charge integration error                      :       0.0049838157
  | Normalization factor for density and gradient :       0.9998220383
  Renormalizing the free-atom superposition density to the exact electron count on the 3D integration grid.
  | Formal number of electrons (from input files) :      28.0000000000
  | Integrated number of electrons on 3D grid     :      28.0049838157
  | Charge integration error                      :       0.0049838157
  | Normalization factor for density and gradient :       0.9998220383
  Obtaining max. number of non-zero basis functions in each batch (get_n_compute_maxes).
  | Maximal number of non-zero basis functions:      693 in task     0
  | Maximal number of non-zero basis functions:      683 in task     1
  Allocating        1.984 MB for KS_eigenvector_complex
  Integrating Hamiltonian matrix: batch-based integration.
  Time summed over all CPUs for integration: real work        0.625 s, elapsed        0.625 s
  Integrating overlap matrix.
  Time summed over all CPUs for integration: real work        0.419 s, elapsed        0.421 s
  Decreasing sparse matrix size:
  | Tolerance:  0.1000E-12
  Hamiltonian matrix
  | Array has    77220 nonzero elements out of    89403 elements
  | Sparsity factor is 0.136
  Overlap matrix
  | Array has    74518 nonzero elements out of    89403 elements
  | Sparsity factor is 0.166
  New size of hamiltonian matrix:       77719

  Updating Kohn-Sham eigenvalues and eigenvectors using ELSI and the (modified) LAPACK eigensolver.
  Singularity check in k-point 2, task 0 (analysis for other k-points/tasks may follow below):
  Overlap matrix is not singular
  | Lowest and highest eigenvalues :  0.7141E-03,  0.6932E+01
  Finished singularity check of overlap matrix
  | Time :     0.034 s
  Starting LAPACK eigensolver
  Finished Cholesky decomposition
  | Time :     0.002 s
  Finished transformation to standard eigenproblem
  | Time :     0.001 s
  Finished solving standard eigenproblem
  | Time :     0.003 s
  Finished back-transformation of eigenvectors
  | Time :     0.000 s

  Obtaining occupation numbers and chemical potential using ELSI.
  | Chemical potential (Fermi level):    -5.34724453 eV
  Writing Kohn-Sham eigenvalues.
  K-point:       1 at    0.000000    0.000000    0.000000 (in units of recip. lattice)

  State    Occupation    Eigenvalue [Ha]    Eigenvalue [eV]
      1       2.00000         -65.789115        -1790.21291
      2       2.00000         -65.789115        -1790.21291
      3       2.00000          -5.141764         -139.91451
      4       2.00000          -5.141478         -139.90674
      5       2.00000          -3.526367          -95.95733
      6       2.00000          -3.526367          -95.95733
      7       2.00000          -3.526367          -95.95733
      8       2.00000          -3.525741          -95.94029
      9       2.00000          -3.525741          -95.94029
     10       2.00000          -3.525741          -95.94029
     11       2.00000          -0.662177          -18.01875
     12       2.00000          -0.226113           -6.15285
     13       2.00000          -0.226113           -6.15285
     14       2.00000          -0.226113           -6.15285
     15       0.00000          -0.123886           -3.37110
     16       0.00000          -0.123886           -3.37110
     17       0.00000          -0.123886           -3.37110
     18       0.00000          -0.102335           -2.78468
     19       0.00000           0.072041            1.96033
     20       0.00000           0.072041            1.96033

  What follows are estimated values for band gap, HOMO, LUMO, etc.
  | They are estimated on a discrete k-point grid and not necessarily exact.
  | For converged numbers, create a DOS and/or band structure plot on a denser k-grid.

  Highest occupied state (VBM) at     -6.15284783 eV (relative to internal zero)
  | Occupation number:      2.00000000
  | K-point:       1 at    0.000000    0.000000    0.000000 (in units of recip. lattice)

  Lowest unoccupied state (CBM) at    -5.25269175 eV (relative to internal zero)
  | Occupation number:      0.00000000
  | K-point:     149 at    0.375000    0.375000    0.000000 (in units of recip. lattice)

  ESTIMATED overall HOMO-LUMO gap:      0.90015609 eV between HOMO at k-point 1 and LUMO at k-point 149
  | This appears to be an indirect band gap.
  | Smallest direct gap :      2.78175086 eV for k_point 1 at    0.000000    0.000000    0.000000 (in units of recip. lattice)
  The gap value is above 0.2 eV. Unless you are using a very sparse k-point grid,
  this system is most likely an insulator or a semiconductor.
  Calculating total energy contributions from superposition of free atom densities.

  Total energy components:
  | Sum of eigenvalues            :        -329.30962330 Ha       -8960.97077918 eV
  | XC energy correction          :         -41.72346576 Ha       -1135.35326941 eV
  | XC potential correction       :          53.88391950 Ha        1466.25605176 eV
  | Free-atom electrostatic energy:        -263.59230454 Ha       -7172.71155008 eV
  | Hartree energy correction     :          -0.00000000 Ha          -0.00000000 eV
  | Entropy correction            :          -0.00000000 Ha          -0.00000000 eV
  | ---------------------------
  | Total energy                  :        -580.74147410 Ha      -15802.77954691 eV
  | Total energy, T -> 0          :        -580.74147410 Ha      -15802.77954691 eV  <-- do not rely on this value for anything but (periodic) metals
  | Electronic free energy        :        -580.74147410 Ha      -15802.77954691 eV

  Derived energy quantities:
  | Kinetic energy                :         582.31109366 Ha       15845.49106833 eV
  | Electrostatic energy          :       -1121.32910201 Ha      -30512.91734584 eV
  | Energy correction for multipole
  | error in Hartree potential    :           0.00000000 Ha           0.00000000 eV
  | Sum of eigenvalues per atom                           :       -4480.48538959 eV
  | Total energy (T->0) per atom                          :       -7901.38977346 eV  <-- do not rely on this value for anything but (periodic) metals
  | Electronic free energy per atom                       :       -7901.38977346 eV
  Initialize hartree_potential_storage
  Max. number of atoms included in rho_multipole:            2

  End scf initialization - timings             :  max(cpu_time)    wall_clock(cpu1)
  | Time for scf. initialization               :        1.296 s           1.168 s
  | Boundary condition initialization          :        0.049 s           0.051 s
  | Relaxation initialization                  :        0.002 s           0.004 s
  | Integration                                :        0.699 s           0.533 s
  | Solution of K.-S. eqns.                    :        0.368 s           0.363 s
  | Grid partitioning                          :        0.032 s           0.033 s
  | Preloading free-atom quantities on grid    :        0.122 s           0.134 s
  | Free-atom superposition energy             :        0.022 s           0.022 s
  | Total energy evaluation                    :        0.000 s           0.001 s

  Partial memory accounting:
  | Current value for overall tracked memory usage:
  |   Minimum:        3.477 MB (on task 1)
  |   Maximum:        3.477 MB (on task 0)
  |   Average:        3.477 MB
  | Peak value for overall tracked memory usage:
  |   Minimum:        8.978 MB (on task 1 after allocating wave)
  |   Maximum:        9.109 MB (on task 0 after allocating wave)
  |   Average:        9.043 MB
  | Largest tracked array allocation so far:
  |   Minimum:        3.559 MB (hamiltonian_shell on task 1)
  |   Maximum:        3.664 MB (hamiltonian_shell on task 0)
  |   Average:        3.612 MB
  Note:  These values currently only include a subset of arrays which are explicitly tracked.
  The "true" memory usage will be greater.
------------------------------------------------------------
  Evaluating new KS density using the density matrix
  Evaluating density matrix
  Time summed over all CPUs for getting density from density matrix: real work        1.298 s, elapsed        1.307 s
  Integration grid: deviation in total charge (<rho> - N_e) =  -6.750156E-14

  Time for density update prior                :  max(cpu_time)    wall_clock(cpu1)
  | self-consistency iterative process         :        1.216 s           0.696 s

------------------------------------------------------------
          Begin self-consistency iteration #    1

  Date     :  20210825, Time     :  114313.069
------------------------------------------------------------
  Pulay mixing of updated and previous charge densities.
  Renormalizing the density to the exact electron count on the 3D integration grid.
  | Formal number of electrons (from input files) :      28.0000000000
  | Integrated number of electrons on 3D grid     :      27.9997813971
  | Charge integration error                      :      -0.0002186029
  | Normalization factor for density and gradient :       1.0000078073

  Evaluating partitioned Hartree potential by multipole expansion.
  | Original multipole sum: apparent total charge =   0.178464E-12
  | Sum of charges compensated after spline to logarithmic grids =  -0.423739E-05
  | Analytical far-field extrapolation by fixed multipoles:
  | Hartree multipole sum: apparent total charge =  -0.000000E+00
  Summing up the Hartree potential.
  Time summed over all CPUs for potential: real work        0.708 s, elapsed        0.713 s
  | RMS charge density error from multipole expansion :   0.548500E-03
  | Average real-space part of the electrostatic potential :      0.01893943 eV

  Integrating Hamiltonian matrix: batch-based integration.
  Time summed over all CPUs for integration: real work        0.627 s, elapsed        0.632 s

  Updating Kohn-Sham eigenvalues and eigenvectors using ELSI and the (modified) LAPACK eigensolver.
  Starting LAPACK eigensolver
  Finished Cholesky decomposition
  | Time :     0.000 s
  Finished transformation to standard eigenproblem
  | Time :     0.000 s
  Finished solving standard eigenproblem
  | Time :     0.001 s
  Finished back-transformation of eigenvectors
  | Time :     0.000 s

  Obtaining occupation numbers and chemical potential using ELSI.
  | Chemical potential (Fermi level):    -5.32465585 eV
  Writing Kohn-Sham eigenvalues.
  K-point:       1 at    0.000000    0.000000    0.000000 (in units of recip. lattice)

  State    Occupation    Eigenvalue [Ha]    Eigenvalue [eV]
      1       2.00000         -65.786682        -1790.14669
      2       2.00000         -65.786682        -1790.14669
      3       2.00000          -5.140013         -139.86688
      4       2.00000          -5.139728         -139.85911
      5       2.00000          -3.524560          -95.90817
      6       2.00000          -3.524560          -95.90817
      7       2.00000          -3.524560          -95.90817
      8       2.00000          -3.523934          -95.89113
      9       2.00000          -3.523934          -95.89113
     10       2.00000          -3.523934          -95.89113
     11       2.00000          -0.661413          -17.99797
     12       2.00000          -0.225111           -6.12558
     13       2.00000          -0.225111           -6.12558
     14       2.00000          -0.225111           -6.12558
     15       0.00000          -0.123299           -3.35512
     16       0.00000          -0.123299           -3.35512
     17       0.00000          -0.123299           -3.35512
     18       0.00000          -0.101180           -2.75325
     19       0.00000           0.072590            1.97526
     20       0.00000           0.072590            1.97526

  What follows are estimated values for band gap, HOMO, LUMO, etc.
  | They are estimated on a discrete k-point grid and not necessarily exact.
  | For converged numbers, create a DOS and/or band structure plot on a denser k-grid.

  Highest occupied state (VBM) at     -6.12557792 eV (relative to internal zero)
  | Occupation number:      2.00000000
  | K-point:       1 at    0.000000    0.000000    0.000000 (in units of recip. lattice)

  Lowest unoccupied state (CBM) at    -5.24214921 eV (relative to internal zero)
  | Occupation number:      0.00000000
  | K-point:     149 at    0.375000    0.375000    0.000000 (in units of recip. lattice)

  ESTIMATED overall HOMO-LUMO gap:      0.88342871 eV between HOMO at k-point 1 and LUMO at k-point 149
  | This appears to be an indirect band gap.
  | Smallest direct gap :      2.77045488 eV for k_point 1 at    0.000000    0.000000    0.000000 (in units of recip. lattice)
  The gap value is above 0.2 eV. Unless you are using a very sparse k-point grid,
  this system is most likely an insulator or a semiconductor.

  Total energy components:
  | Sum of eigenvalues            :        -329.26472138 Ha       -8959.74893576 eV
  | XC energy correction          :         -41.72671145 Ha       -1135.44158917 eV
  | XC potential correction       :          53.88811731 Ha        1466.37028002 eV
  | Free-atom electrostatic energy:        -263.59230454 Ha       -7172.71155008 eV
  | Hartree energy correction     :          -0.04531727 Ha          -1.23314557 eV
  | Entropy correction            :          -0.00000000 Ha          -0.00000000 eV
  | ---------------------------
  | Total energy                  :        -580.74093733 Ha      -15802.76494056 eV
  | Total energy, T -> 0          :        -580.74093733 Ha      -15802.76494056 eV  <-- do not rely on this value for anything but (periodic) metals
  | Electronic free energy        :        -580.74093733 Ha      -15802.76494056 eV

  Derived energy quantities:
  | Kinetic energy                :         582.32895037 Ha       15845.97697397 eV
  | Electrostatic energy          :       -1121.34317625 Ha      -30513.30032535 eV
  | Energy correction for multipole
  | error in Hartree potential    :           0.00070278 Ha           0.01912351 eV
  | Sum of eigenvalues per atom                           :       -4479.87446788 eV
  | Total energy (T->0) per atom                          :       -7901.38247028 eV  <-- do not rely on this value for anything but (periodic) metals
  | Electronic free energy per atom                       :       -7901.38247028 eV
  Evaluating new KS density using the density matrix
  Evaluating density matrix
  Time summed over all CPUs for getting density from density matrix: real work        1.294 s, elapsed        1.307 s
  Integration grid: deviation in total charge (<rho> - N_e) =  -1.776357E-14

  Self-consistency convergence accuracy:
  | Change of charge density      :  0.1116E+00
  | Change of sum of eigenvalues  :  0.1222E+01 eV
  | Change of total energy        :  0.1461E-01 eV


------------------------------------------------------------
  End self-consistency iteration #     1       :  max(cpu_time)    wall_clock(cpu1)
  | Time for this iteration                    :        2.366 s           1.725 s
  | Charge density update                      :        1.217 s           0.685 s
  | Density mixing & preconditioning           :        0.131 s           0.132 s
  | Hartree multipole update                   :        0.001 s           0.001 s
  | Hartree multipole summation                :        0.357 s           0.359 s
  | Integration                                :        0.390 s           0.317 s
  | Solution of K.-S. eqns.                    :        0.269 s           0.229 s
  | Total energy evaluation                    :        0.000 s           0.001 s

  Partial memory accounting:
  | Current value for overall tracked memory usage:
  |   Minimum:        3.477 MB (on task 1)
  |   Maximum:        3.477 MB (on task 0)
  |   Average:        3.477 MB
  | Peak value for overall tracked memory usage:
  |   Minimum:       10.444 MB (on task 1 after allocating gradient_basis_wave)
  |   Maximum:       10.599 MB (on task 0 after allocating gradient_basis_wave)
  |   Average:       10.521 MB
  | Largest tracked array allocation so far:
  |   Minimum:        3.559 MB (hamiltonian_shell on task 1)
  |   Maximum:        3.664 MB (hamiltonian_shell on task 0)
  |   Average:        3.612 MB
  Note:  These values currently only include a subset of arrays which are explicitly tracked.
  The "true" memory usage will be greater.
------------------------------------------------------------

------------------------------------------------------------
          Begin self-consistency iteration #    2

  Date     :  20210825, Time     :  114314.796
------------------------------------------------------------
  Pulay mixing of updated and previous charge densities.
  Renormalizing the density to the exact electron count on the 3D integration grid.
  | Formal number of electrons (from input files) :      28.0000000000
  | Integrated number of electrons on 3D grid     :      27.9962332521
  | Charge integration error                      :      -0.0037667479
  | Normalization factor for density and gradient :       1.0001345448

  Evaluating partitioned Hartree potential by multipole expansion.
  | Original multipole sum: apparent total charge =   0.355033E-13
  | Sum of charges compensated after spline to logarithmic grids =  -0.795718E-04
  | Analytical far-field extrapolation by fixed multipoles:
  | Hartree multipole sum: apparent total charge =  -0.000000E+00
  Summing up the Hartree potential.
  Time summed over all CPUs for potential: real work        0.899 s, elapsed        0.902 s
  | RMS charge density error from multipole expansion :   0.102986E-01
  | Average real-space part of the electrostatic potential :      0.35179232 eV

  Integrating Hamiltonian matrix: batch-based integration.
  Time summed over all CPUs for integration: real work        0.609 s, elapsed        0.612 s

  Updating Kohn-Sham eigenvalues and eigenvectors using ELSI and the (modified) LAPACK eigensolver.
  Starting LAPACK eigensolver
  Finished Cholesky decomposition
  | Time :     0.001 s
  Finished transformation to standard eigenproblem
  | Time :     0.000 s
  Finished solving standard eigenproblem
  | Time :     0.000 s
  Finished back-transformation of eigenvectors
  | Time :     0.001 s

  Obtaining occupation numbers and chemical potential using ELSI.
  | Chemical potential (Fermi level):    -5.32883426 eV
  What follows are estimated values for band gap, HOMO, LUMO, etc.
  | They are estimated on a discrete k-point grid and not necessarily exact.
  | For converged numbers, create a DOS and/or band structure plot on a denser k-grid.

  Highest occupied state (VBM) at     -5.60701961 eV (relative to internal zero)
  | Occupation number:      2.00000000
  | K-point:       1 at    0.000000    0.000000    0.000000 (in units of recip. lattice)

  Lowest unoccupied state (CBM) at    -5.00570033 eV (relative to internal zero)
  | Occupation number:      0.00000000
  | K-point:      30 at    0.000000    0.625000    0.625000 (in units of recip. lattice)

  ESTIMATED overall HOMO-LUMO gap:      0.60131928 eV between HOMO at k-point 1 and LUMO at k-point 30
  | This appears to be an indirect band gap.
  | Smallest direct gap :      2.55749050 eV for k_point 1 at    0.000000    0.000000    0.000000 (in units of recip. lattice)
  The gap value is above 0.2 eV. Unless you are using a very sparse k-point grid,
  this system is most likely an insulator or a semiconductor.

  Checking to see if s.c.f. parameters should be adjusted.
  The system likely has a gap. Increased the default Pulay mixing parameter (charge_mix_param). Value:   0.200000 .
  Kept the default occupation width. Value:   0.010000 eV.

  Total energy components:
  | Sum of eigenvalues            :        -328.47633474 Ha       -8938.29584371 eV
  | XC energy correction          :         -41.79635464 Ha       -1137.33667692 eV
  | XC potential correction       :          53.97703134 Ha        1468.78975406 eV
  | Free-atom electrostatic energy:        -263.59230454 Ha       -7172.71155008 eV
  | Hartree energy correction     :          -0.84898320 Ha         -23.10200833 eV
  | Entropy correction            :          -0.00000000 Ha          -0.00000000 eV
  | ---------------------------
  | Total energy                  :        -580.73694578 Ha      -15802.65632498 eV
  | Total energy, T -> 0          :        -580.73694578 Ha      -15802.65632498 eV  <-- do not rely on this value for anything but (periodic) metals
  | Electronic free energy        :        -580.73694578 Ha      -15802.65632498 eV

  Derived energy quantities:
  | Kinetic energy                :         582.61286488 Ha       15853.70268079 eV
  | Electrostatic energy          :       -1121.55345601 Ha      -30519.02232885 eV
  | Energy correction for multipole
  | error in Hartree potential    :           0.01319877 Ha           0.35915673 eV
  | Sum of eigenvalues per atom                           :       -4469.14792186 eV
  | Total energy (T->0) per atom                          :       -7901.32816249 eV  <-- do not rely on this value for anything but (periodic) metals
  | Electronic free energy per atom                       :       -7901.32816249 eV
  Evaluating new KS density using the density matrix
  Evaluating density matrix
  Time summed over all CPUs for getting density from density matrix: real work        1.287 s, elapsed        1.289 s
  Integration grid: deviation in total charge (<rho> - N_e) =   5.329071E-14

  Self-consistency convergence accuracy:
  | Change of charge density      :  0.1058E+00
  | Change of sum of eigenvalues  :  0.2145E+02 eV
  | Change of total energy        :  0.1086E+00 eV


------------------------------------------------------------
  End self-consistency iteration #     2       :  max(cpu_time)    wall_clock(cpu1)
  | Time for this iteration                    :        2.462 s           1.790 s
  | Charge density update                      :        1.199 s           0.672 s
  | Density mixing & preconditioning           :        0.126 s           0.129 s
  | Hartree multipole update                   :        0.001 s           0.001 s
  | Hartree multipole summation                :        0.451 s           0.453 s
  | Integration                                :        0.409 s           0.308 s
  | Solution of K.-S. eqns.                    :        0.277 s           0.227 s
  | Total energy evaluation                    :        0.000 s           0.000 s

  Partial memory accounting:
  | Current value for overall tracked memory usage:
  |   Minimum:        3.478 MB (on task 1)
  |   Maximum:        3.478 MB (on task 0)
  |   Average:        3.478 MB
  | Peak value for overall tracked memory usage:
  |   Minimum:       10.445 MB (on task 1 after allocating gradient_basis_wave)
  |   Maximum:       10.600 MB (on task 0 after allocating gradient_basis_wave)
  |   Average:       10.522 MB
  | Largest tracked array allocation so far:
  |   Minimum:        3.559 MB (hamiltonian_shell on task 1)
  |   Maximum:        3.664 MB (hamiltonian_shell on task 0)
  |   Average:        3.612 MB
  Note:  These values currently only include a subset of arrays which are explicitly tracked.
  The "true" memory usage will be greater.
------------------------------------------------------------

------------------------------------------------------------
          Begin self-consistency iteration #    3

  Date     :  20210825, Time     :  114316.587
------------------------------------------------------------
  Pulay mixing of updated and previous charge densities.
  Renormalizing the density to the exact electron count on the 3D integration grid.
  | Formal number of electrons (from input files) :      28.0000000000
  | Integrated number of electrons on 3D grid     :      28.0008769590
  | Charge integration error                      :       0.0008769590
  | Normalization factor for density and gradient :       0.9999686810

  Evaluating partitioned Hartree potential by multipole expansion.
  | Original multipole sum: apparent total charge =   0.703401E-13
  | Sum of charges compensated after spline to logarithmic grids =  -0.837891E-04
  | Analytical far-field extrapolation by fixed multipoles:
  | Hartree multipole sum: apparent total charge =  -0.000000E+00
  Summing up the Hartree potential.
  Time summed over all CPUs for potential: real work        0.942 s, elapsed        0.949 s
  | RMS charge density error from multipole expansion :   0.107327E-01
  | Average real-space part of the electrostatic potential :      0.32850963 eV

  Integrating Hamiltonian matrix: batch-based integration.
  Time summed over all CPUs for integration: real work        0.620 s, elapsed        0.625 s

  Updating Kohn-Sham eigenvalues and eigenvectors using ELSI and the (modified) LAPACK eigensolver.
  Starting LAPACK eigensolver
  Finished Cholesky decomposition
  | Time :     0.001 s
  Finished transformation to standard eigenproblem
  | Time :     0.000 s
  Finished solving standard eigenproblem
  | Time :     0.001 s
  Finished back-transformation of eigenvectors
  | Time :     0.000 s

  Obtaining occupation numbers and chemical potential using ELSI.
  | Chemical potential (Fermi level):    -5.36159602 eV
  What follows are estimated values for band gap, HOMO, LUMO, etc.
  | They are estimated on a discrete k-point grid and not necessarily exact.
  | For converged numbers, create a DOS and/or band structure plot on a denser k-grid.

  Highest occupied state (VBM) at     -5.64250862 eV (relative to internal zero)
  | Occupation number:      2.00000000
  | K-point:       1 at    0.000000    0.000000    0.000000 (in units of recip. lattice)

  Lowest unoccupied state (CBM) at    -5.01512024 eV (relative to internal zero)
  | Occupation number:      0.00000000
  | K-point:      30 at    0.000000    0.625000    0.625000 (in units of recip. lattice)

  ESTIMATED overall HOMO-LUMO gap:      0.62738838 eV between HOMO at k-point 1 and LUMO at k-point 30
  | This appears to be an indirect band gap.
  | Smallest direct gap :      2.56565864 eV for k_point 1 at    0.000000    0.000000    0.000000 (in units of recip. lattice)
  The gap value is above 0.2 eV. Unless you are using a very sparse k-point grid,
  this system is most likely an insulator or a semiconductor.

  Total energy components:
  | Sum of eigenvalues            :        -328.64153320 Ha       -8942.79112260 eV
  | XC energy correction          :         -41.78189908 Ha       -1136.94332108 eV
  | XC potential correction       :          53.95823909 Ha        1468.27839089 eV
  | Free-atom electrostatic energy:        -263.59230454 Ha       -7172.71155008 eV
  | Hartree energy correction     :          -0.67925455 Ha         -18.48345667 eV
  | Entropy correction            :          -0.00000000 Ha          -0.00000000 eV
  | ---------------------------
  | Total energy                  :        -580.73675228 Ha      -15802.65105955 eV
  | Total energy, T -> 0          :        -580.73675228 Ha      -15802.65105955 eV  <-- do not rely on this value for anything but (periodic) metals
  | Electronic free energy        :        -580.73675228 Ha      -15802.65105955 eV

  Derived energy quantities:
  | Kinetic energy                :         582.39747812 Ha       15847.84170905 eV
  | Electrostatic energy          :       -1121.35233132 Ha      -30513.54944752 eV
  | Energy correction for multipole
  | error in Hartree potential    :           0.01384699 Ha           0.37679584 eV
  | Sum of eigenvalues per atom                           :       -4471.39556130 eV
  | Total energy (T->0) per atom                          :       -7901.32552977 eV  <-- do not rely on this value for anything but (periodic) metals
  | Electronic free energy per atom                       :       -7901.32552977 eV
  Evaluating new KS density using the density matrix
  Evaluating density matrix
  Time summed over all CPUs for getting density from density matrix: real work        1.296 s, elapsed        1.298 s
  Integration grid: deviation in total charge (<rho> - N_e) =   1.776357E-14

  Self-consistency convergence accuracy:
  | Change of charge density      :  0.1664E-01
  | Change of sum of eigenvalues  : -0.4495E+01 eV
  | Change of total energy        :  0.5265E-02 eV


------------------------------------------------------------
  End self-consistency iteration #     3       :  max(cpu_time)    wall_clock(cpu1)
  | Time for this iteration                    :        2.492 s           1.831 s
  | Charge density update                      :        1.212 s           0.677 s
  | Density mixing & preconditioning           :        0.126 s           0.127 s
  | Hartree multipole update                   :        0.001 s           0.001 s
  | Hartree multipole summation                :        0.473 s           0.477 s
  | Integration                                :        0.408 s           0.314 s
  | Solution of K.-S. eqns.                    :        0.274 s           0.233 s
  | Total energy evaluation                    :        0.000 s           0.001 s

  Partial memory accounting:
  | Current value for overall tracked memory usage:
  |   Minimum:        3.478 MB (on task 1)
  |   Maximum:        3.478 MB (on task 0)
  |   Average:        3.478 MB
  | Peak value for overall tracked memory usage:
  |   Minimum:       10.445 MB (on task 1 after allocating gradient_basis_wave)
  |   Maximum:       10.600 MB (on task 0 after allocating gradient_basis_wave)
  |   Average:       10.523 MB
  | Largest tracked array allocation so far:
  |   Minimum:        3.559 MB (hamiltonian_shell on task 1)
  |   Maximum:        3.664 MB (hamiltonian_shell on task 0)
  |   Average:        3.612 MB
  Note:  These values currently only include a subset of arrays which are explicitly tracked.
  The "true" memory usage will be greater.
------------------------------------------------------------

------------------------------------------------------------
          Begin self-consistency iteration #    4

  Date     :  20210825, Time     :  114318.418
------------------------------------------------------------
  Pulay mixing of updated and previous charge densities.
  Renormalizing the density to the exact electron count on the 3D integration grid.
  | Formal number of electrons (from input files) :      28.0000000000
  | Integrated number of electrons on 3D grid     :      28.0004580897
  | Charge integration error                      :       0.0004580897
  | Normalization factor for density and gradient :       0.9999836399

  Evaluating partitioned Hartree potential by multipole expansion.
  | Original multipole sum: apparent total charge =   0.563671E-13
  | Sum of charges compensated after spline to logarithmic grids =  -0.891325E-04
  | Analytical far-field extrapolation by fixed multipoles:
  | Hartree multipole sum: apparent total charge =  -0.000000E+00
  Summing up the Hartree potential.
  Time summed over all CPUs for potential: real work        0.938 s, elapsed        0.943 s
  | RMS charge density error from multipole expansion :   0.113949E-01
  | Average real-space part of the electrostatic potential :      0.32661415 eV

  Integrating Hamiltonian matrix: batch-based integration.
  Time summed over all CPUs for integration: real work        0.620 s, elapsed        0.623 s

  Updating Kohn-Sham eigenvalues and eigenvectors using ELSI and the (modified) LAPACK eigensolver.
  Starting LAPACK eigensolver
  Finished Cholesky decomposition
  | Time :     0.000 s
  Finished transformation to standard eigenproblem
  | Time :     0.000 s
  Finished solving standard eigenproblem
  | Time :     0.001 s
  Finished back-transformation of eigenvectors
  | Time :     0.000 s

  Obtaining occupation numbers and chemical potential using ELSI.
  | Chemical potential (Fermi level):    -5.36265699 eV
  What follows are estimated values for band gap, HOMO, LUMO, etc.
  | They are estimated on a discrete k-point grid and not necessarily exact.
  | For converged numbers, create a DOS and/or band structure plot on a denser k-grid.

  Highest occupied state (VBM) at     -5.64196379 eV (relative to internal zero)
  | Occupation number:      2.00000000
  | K-point:       1 at    0.000000    0.000000    0.000000 (in units of recip. lattice)

  Lowest unoccupied state (CBM) at    -5.00867096 eV (relative to internal zero)
  | Occupation number:      0.00000000
  | K-point:     133 at    0.375000    0.000000    0.375000 (in units of recip. lattice)

  ESTIMATED overall HOMO-LUMO gap:      0.63329283 eV between HOMO at k-point 1 and LUMO at k-point 133
  | This appears to be an indirect band gap.
  | Smallest direct gap :      2.56204158 eV for k_point 1 at    0.000000    0.000000    0.000000 (in units of recip. lattice)
  The gap value is above 0.2 eV. Unless you are using a very sparse k-point grid,
  this system is most likely an insulator or a semiconductor.

  Total energy components:
  | Sum of eigenvalues            :        -328.70951211 Ha       -8944.64092284 eV
  | XC energy correction          :         -41.77700377 Ha       -1136.81011281 eV
  | XC potential correction       :          53.95171926 Ha        1468.10097736 eV
  | Free-atom electrostatic energy:        -263.59230454 Ha       -7172.71155008 eV
  | Hartree energy correction     :          -0.60956922 Ha         -16.58722236 eV
  | Entropy correction            :          -0.00000000 Ha          -0.00000000 eV
  | ---------------------------
  | Total energy                  :        -580.73667037 Ha      -15802.64883074 eV
  | Total energy, T -> 0          :        -580.73667037 Ha      -15802.64883074 eV  <-- do not rely on this value for anything but (periodic) metals
  | Electronic free energy        :        -580.73667037 Ha      -15802.64883074 eV

  Derived energy quantities:
  | Kinetic energy                :         582.28765384 Ha       15844.85323818 eV
  | Electrostatic energy          :       -1121.24732044 Ha      -30510.69195610 eV
  | Energy correction for multipole
  | error in Hartree potential    :           0.01474159 Ha           0.40113916 eV
  | Sum of eigenvalues per atom                           :       -4472.32046142 eV
  | Total energy (T->0) per atom                          :       -7901.32441537 eV  <-- do not rely on this value for anything but (periodic) metals
  | Electronic free energy per atom                       :       -7901.32441537 eV
  Evaluating new KS density using the density matrix
  Evaluating density matrix
  Time summed over all CPUs for getting density from density matrix: real work        1.325 s, elapsed        1.346 s
  Integration grid: deviation in total charge (<rho> - N_e) =   3.552714E-14

  Self-consistency convergence accuracy:
  | Change of charge density      :  0.7960E-02
  | Change of sum of eigenvalues  : -0.1850E+01 eV
  | Change of total energy        :  0.2229E-02 eV


------------------------------------------------------------
  End self-consistency iteration #     4       :  max(cpu_time)    wall_clock(cpu1)
  | Time for this iteration                    :        2.504 s           1.868 s
  | Charge density update                      :        1.217 s           0.701 s
  | Density mixing & preconditioning           :        0.126 s           0.126 s
  | Hartree multipole update                   :        0.001 s           0.001 s
  | Hartree multipole summation                :        0.463 s           0.473 s
  | Integration                                :        0.398 s           0.313 s
  | Solution of K.-S. eqns.                    :        0.299 s           0.252 s
  | Total energy evaluation                    :        0.000 s           0.001 s

  Partial memory accounting:
  | Current value for overall tracked memory usage:
  |   Minimum:        3.478 MB (on task 1)
  |   Maximum:        3.479 MB (on task 0)
  |   Average:        3.478 MB
  | Peak value for overall tracked memory usage:
  |   Minimum:       10.445 MB (on task 1 after allocating gradient_basis_wave)
  |   Maximum:       10.600 MB (on task 0 after allocating gradient_basis_wave)
  |   Average:       10.523 MB
  | Largest tracked array allocation so far:
  |   Minimum:        3.559 MB (hamiltonian_shell on task 1)
  |   Maximum:        3.664 MB (hamiltonian_shell on task 0)
  |   Average:        3.612 MB
  Note:  These values currently only include a subset of arrays which are explicitly tracked.
  The "true" memory usage will be greater.
------------------------------------------------------------

------------------------------------------------------------
          Begin self-consistency iteration #    5

  Date     :  20210825, Time     :  114320.287
------------------------------------------------------------
  Pulay mixing of updated and previous charge densities.
  Renormalizing the density to the exact electron count on the 3D integration grid.
  | Formal number of electrons (from input files) :      28.0000000000
  | Integrated number of electrons on 3D grid     :      28.0007163095
  | Charge integration error                      :       0.0007163095
  | Normalization factor for density and gradient :       0.9999744182

  Evaluating partitioned Hartree potential by multipole expansion.
  | Original multipole sum: apparent total charge =  -0.388800E-13
  | Sum of charges compensated after spline to logarithmic grids =  -0.883868E-04
  | Analytical far-field extrapolation by fixed multipoles:
  | Hartree multipole sum: apparent total charge =  -0.000000E+00
  Summing up the Hartree potential.
  Time summed over all CPUs for potential: real work        0.903 s, elapsed        0.906 s
  | RMS charge density error from multipole expansion :   0.115046E-01
  | Average real-space part of the electrostatic potential :      0.31219992 eV

  Integrating Hamiltonian matrix: batch-based integration.
  Time summed over all CPUs for integration: real work        0.618 s, elapsed        0.621 s

  Updating Kohn-Sham eigenvalues and eigenvectors using ELSI and the (modified) LAPACK eigensolver.
  Starting LAPACK eigensolver
  Finished Cholesky decomposition
  | Time :     0.000 s
  Finished transformation to standard eigenproblem
  | Time :     0.001 s
  Finished solving standard eigenproblem
  | Time :     0.000 s
  Finished back-transformation of eigenvectors
  | Time :     0.000 s

  Obtaining occupation numbers and chemical potential using ELSI.
  | Chemical potential (Fermi level):    -5.37374580 eV
  What follows are estimated values for band gap, HOMO, LUMO, etc.
  | They are estimated on a discrete k-point grid and not necessarily exact.
  | For converged numbers, create a DOS and/or band structure plot on a denser k-grid.

  Highest occupied state (VBM) at     -5.65344009 eV (relative to internal zero)
  | Occupation number:      2.00000000
  | K-point:       1 at    0.000000    0.000000    0.000000 (in units of recip. lattice)

  Lowest unoccupied state (CBM) at    -5.01337681 eV (relative to internal zero)
  | Occupation number:      0.00000000
  | K-point:      30 at    0.000000    0.625000    0.625000 (in units of recip. lattice)

  ESTIMATED overall HOMO-LUMO gap:      0.64006328 eV between HOMO at k-point 1 and LUMO at k-point 30
  | This appears to be an indirect band gap.
  | Smallest direct gap :      2.56580903 eV for k_point 1 at    0.000000    0.000000    0.000000 (in units of recip. lattice)
  The gap value is above 0.2 eV. Unless you are using a very sparse k-point grid,
  this system is most likely an insulator or a semiconductor.

  Total energy components:
  | Sum of eigenvalues            :        -328.75099123 Ha       -8945.76962722 eV
  | XC energy correction          :         -41.77665998 Ha       -1136.80075788 eV
  | XC potential correction       :          53.95105282 Ha        1468.08284238 eV
  | Free-atom electrostatic energy:        -263.59230454 Ha       -7172.71155008 eV
  | Hartree energy correction     :          -0.56771810 Ha         -15.44839560 eV
  | Entropy correction            :          -0.00000000 Ha          -0.00000000 eV
  | ---------------------------
  | Total energy                  :        -580.73662104 Ha      -15802.64748841 eV
  | Total energy, T -> 0          :        -580.73662104 Ha      -15802.64748841 eV  <-- do not rely on this value for anything but (periodic) metals
  | Electronic free energy        :        -580.73662104 Ha      -15802.64748841 eV

  Derived energy quantities:
  | Kinetic energy                :         582.30303766 Ha       15845.27185342 eV
  | Electrostatic energy          :       -1121.26299873 Ha      -30511.11858395 eV
  | Energy correction for multipole
  | error in Hartree potential    :           0.01481681 Ha           0.40318596 eV
  | Sum of eigenvalues per atom                           :       -4472.88481361 eV
  | Total energy (T->0) per atom                          :       -7901.32374420 eV  <-- do not rely on this value for anything but (periodic) metals
  | Electronic free energy per atom                       :       -7901.32374420 eV
  Evaluating new KS density using the density matrix
  Evaluating density matrix
  Time summed over all CPUs for getting density from density matrix: real work        1.456 s, elapsed        1.465 s
  Integration grid: deviation in total charge (<rho> - N_e) =  -2.842171E-14

  Self-consistency convergence accuracy:
  | Change of charge density      :  0.3214E-02
  | Change of sum of eigenvalues  : -0.1129E+01 eV
  | Change of total energy        :  0.1342E-02 eV


------------------------------------------------------------
  End self-consistency iteration #     5       :  max(cpu_time)    wall_clock(cpu1)
  | Time for this iteration                    :        2.460 s           1.902 s
  | Charge density update                      :        1.205 s           0.760 s
  | Density mixing & preconditioning           :        0.134 s           0.140 s
  | Hartree multipole update                   :        0.001 s           0.001 s
  | Hartree multipole summation                :        0.453 s           0.455 s
  | Integration                                :        0.398 s           0.312 s
  | Solution of K.-S. eqns.                    :        0.273 s           0.233 s
  | Total energy evaluation                    :        0.000 s           0.000 s

  Partial memory accounting:
  | Current value for overall tracked memory usage:
  |   Minimum:        3.479 MB (on task 1)
  |   Maximum:        3.479 MB (on task 0)
  |   Average:        3.479 MB
  | Peak value for overall tracked memory usage:
  |   Minimum:       10.446 MB (on task 1 after allocating gradient_basis_wave)
  |   Maximum:       10.601 MB (on task 0 after allocating gradient_basis_wave)
  |   Average:       10.523 MB
  | Largest tracked array allocation so far:
  |   Minimum:        3.559 MB (hamiltonian_shell on task 1)
  |   Maximum:        3.664 MB (hamiltonian_shell on task 0)
  |   Average:        3.612 MB
  Note:  These values currently only include a subset of arrays which are explicitly tracked.
  The "true" memory usage will be greater.
------------------------------------------------------------

------------------------------------------------------------
          Begin self-consistency iteration #    6

  Date     :  20210825, Time     :  114322.190
------------------------------------------------------------
  Pulay mixing of updated and previous charge densities.
  Renormalizing the density to the exact electron count on the 3D integration grid.
  | Formal number of electrons (from input files) :      28.0000000000
  | Integrated number of electrons on 3D grid     :      27.9999928878
  | Charge integration error                      :      -0.0000071122
  | Normalization factor for density and gradient :       1.0000002540

  Evaluating partitioned Hartree potential by multipole expansion.
  | Original multipole sum: apparent total charge =   0.680653E-13
  | Sum of charges compensated after spline to logarithmic grids =  -0.883105E-04
  | Analytical far-field extrapolation by fixed multipoles:
  | Hartree multipole sum: apparent total charge =  -0.000000E+00
  Summing up the Hartree potential.
  Time summed over all CPUs for potential: real work        1.040 s, elapsed        1.046 s
  | RMS charge density error from multipole expansion :   0.114668E-01
  | Average real-space part of the electrostatic potential :      0.31065871 eV

  Integrating Hamiltonian matrix: batch-based integration.
  Time summed over all CPUs for integration: real work        0.861 s, elapsed        0.867 s

  Updating Kohn-Sham eigenvalues and eigenvectors using ELSI and the (modified) LAPACK eigensolver.
  Starting LAPACK eigensolver
  Finished Cholesky decomposition
  | Time :     0.001 s
  Finished transformation to standard eigenproblem
  | Time :     0.000 s
  Finished solving standard eigenproblem
  | Time :     0.001 s
  Finished back-transformation of eigenvectors
  | Time :     0.000 s

  Obtaining occupation numbers and chemical potential using ELSI.
  | Chemical potential (Fermi level):    -5.37631486 eV
  What follows are estimated values for band gap, HOMO, LUMO, etc.
  | They are estimated on a discrete k-point grid and not necessarily exact.
  | For converged numbers, create a DOS and/or band structure plot on a denser k-grid.

  Highest occupied state (VBM) at     -5.65650561 eV (relative to internal zero)
  | Occupation number:      2.00000000
  | K-point:       1 at    0.000000    0.000000    0.000000 (in units of recip. lattice)

  Lowest unoccupied state (CBM) at    -5.01478823 eV (relative to internal zero)
  | Occupation number:      0.00000000
  | K-point:      30 at    0.000000    0.625000    0.625000 (in units of recip. lattice)

  ESTIMATED overall HOMO-LUMO gap:      0.64171738 eV between HOMO at k-point 1 and LUMO at k-point 30
  | This appears to be an indirect band gap.
  | Smallest direct gap :      2.56697159 eV for k_point 1 at    0.000000    0.000000    0.000000 (in units of recip. lattice)
  The gap value is above 0.2 eV. Unless you are using a very sparse k-point grid,
  this system is most likely an insulator or a semiconductor.

  Total energy components:
  | Sum of eigenvalues            :        -328.75538920 Ha       -8945.88930205 eV
  | XC energy correction          :         -41.77624315 Ha       -1136.78941539 eV
  | XC potential correction       :          53.95053279 Ha        1468.06869181 eV
  | Free-atom electrostatic energy:        -263.59230454 Ha       -7172.71155008 eV
  | Hartree energy correction     :          -0.56321415 Ha         -15.32583667 eV
  | Entropy correction            :          -0.00000000 Ha          -0.00000000 eV
  | ---------------------------
  | Total energy                  :        -580.73661825 Ha      -15802.64741238 eV
  | Total energy, T -> 0          :        -580.73661825 Ha      -15802.64741238 eV  <-- do not rely on this value for anything but (periodic) metals
  | Electronic free energy        :        -580.73661825 Ha      -15802.64741238 eV

  Derived energy quantities:
  | Kinetic energy                :         582.30349395 Ha       15845.28426952 eV
  | Electrostatic energy          :       -1121.26386904 Ha      -30511.14226650 eV
  | Energy correction for multipole
  | error in Hartree potential    :           0.01477653 Ha           0.40208997 eV
  | Sum of eigenvalues per atom                           :       -4472.94465102 eV
  | Total energy (T->0) per atom                          :       -7901.32370619 eV  <-- do not rely on this value for anything but (periodic) metals
  | Electronic free energy per atom                       :       -7901.32370619 eV
  Evaluating new KS density using the density matrix
  Evaluating density matrix
  Time summed over all CPUs for getting density from density matrix: real work        1.347 s, elapsed        1.357 s
  Integration grid: deviation in total charge (<rho> - N_e) =   4.263256E-14

  Self-consistency convergence accuracy:
  | Change of charge density      :  0.4755E-03
  | Change of sum of eigenvalues  : -0.1197E+00 eV
  | Change of total energy        :  0.7603E-04 eV


------------------------------------------------------------
  End self-consistency iteration #     6       :  max(cpu_time)    wall_clock(cpu1)
  | Time for this iteration                    :        2.639 s           2.063 s
  | Charge density update                      :        1.201 s           0.709 s
  | Density mixing & preconditioning           :        0.131 s           0.136 s
  | Hartree multipole update                   :        0.001 s           0.001 s
  | Hartree multipole summation                :        0.504 s           0.525 s
  | Integration                                :        0.525 s           0.435 s
  | Solution of K.-S. eqns.                    :        0.287 s           0.256 s
  | Total energy evaluation                    :        0.000 s           0.001 s

  Partial memory accounting:
  | Current value for overall tracked memory usage:
  |   Minimum:        3.479 MB (on task 1)
  |   Maximum:        3.479 MB (on task 0)
  |   Average:        3.479 MB
  | Peak value for overall tracked memory usage:
  |   Minimum:       10.446 MB (on task 1 after allocating gradient_basis_wave)
  |   Maximum:       10.601 MB (on task 0 after allocating gradient_basis_wave)
  |   Average:       10.523 MB
  | Largest tracked array allocation so far:
  |   Minimum:        3.559 MB (hamiltonian_shell on task 1)
  |   Maximum:        3.664 MB (hamiltonian_shell on task 0)
  |   Average:        3.612 MB
  Note:  These values currently only include a subset of arrays which are explicitly tracked.
  The "true" memory usage will be greater.
------------------------------------------------------------

------------------------------------------------------------
          Begin self-consistency iteration #    7

  Date     :  20210825, Time     :  114324.254
------------------------------------------------------------
  Pulay mixing of updated and previous charge densities.
  Renormalizing the density to the exact electron count on the 3D integration grid.
  | Formal number of electrons (from input files) :      28.0000000000
  | Integrated number of electrons on 3D grid     :      27.9999288748
  | Charge integration error                      :      -0.0000711252
  | Normalization factor for density and gradient :       1.0000025402

[...]
  | Total energy (T->0) per atom                          :       -7901.32710598 eV  <-- do not rely on this value for anything but (periodic) metals
  | Electronic free energy per atom                       :       -7901.32710598 eV
  Evaluating new KS density using the density matrix
  Evaluating density matrix
  Time summed over all CPUs for getting density from density matrix: real work        1.387 s, elapsed        1.419 s
  
  Evaluating density-matrix-based force terms: batch-based integration
  Evaluating density matrix
  Evaluating density matrix
  Integration grid: deviation in total charge (<rho> - N_e) =   1.421085E-14

  atomic forces [eV/Ang]:
  -----------------------
  atom #    1
   Hellmann-Feynman              :  0.227174E-06 -0.997497E-07 -0.583458E-07
   Ionic forces                  :  0.000000E+00  0.000000E+00  0.000000E+00
   Multipole                     :  0.906398E-08 -0.150229E-08  0.567772E-08
   Hartree pot. SCF incomplete   : -0.491096E-09 -0.772273E-10 -0.166832E-09
   Pulay + GGA                   : -0.106792E-06  0.723707E-07  0.958074E-07
   ----------------------------------------------------------------
   Total forces(   1)            :  0.128954E-06 -0.289585E-07  0.429725E-07
  atom #    2
   Hellmann-Feynman              : -0.228406E-06  0.964095E-07  0.595636E-07
   Ionic forces                  :  0.000000E+00  0.000000E+00  0.000000E+00
   Multipole                     : -0.906335E-08  0.150151E-08 -0.567990E-08
   Hartree pot. SCF incomplete   :  0.428526E-09 -0.542171E-10  0.116498E-09
   Pulay + GGA                   :  0.111308E-06 -0.618128E-07 -0.991016E-07
   ----------------------------------------------------------------
   Total forces(   2)            : -0.125733E-06  0.360440E-07 -0.451014E-07


  Analytical stress tensor components [eV]         xx                  yy                  zz                  xy                  xz                  yz
  -----------------------------------------------------------------------------------------------------------------------------------------------------------
    Nuclear Hellmann-Feynman      :    -0.1602467593E+02   -0.1602487619E+02   -0.1602487619E+02    0.4714681147E-07   -0.5304004391E-07    0.2047190386E-06
    Multipole Hellmann-Feynman    :    -0.3718223018E+02   -0.3718223924E+02   -0.3718223924E+02    0.1943605503E-06   -0.1773584486E-06    0.6219408841E-06
    On-site Multipole corrections :    -0.2829845435E+00   -0.2829845437E+00   -0.2829845437E+00   -0.4683867797E-10    0.2687544371E-10   -0.1146073328E-09
    Strain deriv. of the orbitals :     0.5347196641E+02    0.5347217601E+02    0.5347217601E+02   -0.1768699339E-06    0.2425848808E-06   -0.8051918704E-06
  -----------------------------------------------------------------------------------------------------------------------------------------------------------
  Sum of all contributions        :    -0.1792424386E-01   -0.1792396471E-01   -0.1792396650E-01    0.6459058920E-07    0.1221326378E-07    0.2135344495E-07

  +-------------------------------------------------------------------+
  |              Analytical stress tensor - Symmetrized               |
  |                  Cartesian components [eV/A**3]                   |
  +-------------------------------------------------------------------+
  |                x                y                z                |
  |                                                                   |
  |  x        -0.00043648       0.00000000       0.00000000           |
  |  y         0.00000000      -0.00043647       0.00000000           |
  |  z         0.00000000       0.00000000      -0.00043647           |
  |                                                                   |
  |  Pressure:       0.00043647   [eV/A**3]                           |
  |                                                                   |
  +-------------------------------------------------------------------+


  Self-consistency convergence accuracy:
  | Change of charge density      :  0.1137E-08
  | Change of sum of eigenvalues  : -0.9163E-06 eV
  | Change of total energy        :  0.2351E-09 eV
  | Change of forces              :  0.2216E-09 eV/A

  Writing Kohn-Sham eigenvalues.
  K-point:       1 at    0.000000    0.000000    0.000000 (in units of recip. lattice)

  State    Occupation    Eigenvalue [Ha]    Eigenvalue [eV]
      1       2.00000         -65.762966        -1789.50134
      2       2.00000         -65.762966        -1789.50134
      3       2.00000          -5.121909         -139.37423
      4       2.00000          -5.121659         -139.36744
      5       2.00000          -3.505765          -95.39673
      6       2.00000          -3.505765          -95.39673
      7       2.00000          -3.505765          -95.39673
      8       2.00000          -3.505207          -95.38154
      9       2.00000          -3.505207          -95.38154
     10       2.00000          -3.505207          -95.38154
     11       2.00000          -0.640328          -17.42420
     12       2.00000          -0.206499           -5.61913
     13       2.00000          -0.206499           -5.61913
     14       2.00000          -0.206499           -5.61913
     15       0.00000          -0.112638           -3.06503
     16       0.00000          -0.112638           -3.06503
     17       0.00000          -0.112638           -3.06503
     18       0.00000          -0.092298           -2.51157
     19       0.00000           0.083106            2.26142
     20       0.00000           0.083106            2.26142

  What follows are estimated values for band gap, HOMO, LUMO, etc.
  | They are estimated on a discrete k-point grid and not necessarily exact.
  | For converged numbers, create a DOS and/or band structure plot on a denser k-grid.

  Highest occupied state (VBM) at     -5.61913397 eV (relative to internal zero)
  | Occupation number:      2.00000000
  | K-point:       1 at    0.000000    0.000000    0.000000 (in units of recip. lattice)

  Lowest unoccupied state (CBM) at    -4.93800013 eV (relative to internal zero)
  | Occupation number:      0.00000000
  | K-point:     149 at    0.375000    0.375000    0.000000 (in units of recip. lattice)

  ESTIMATED overall HOMO-LUMO gap:      0.68113383 eV between HOMO at k-point 1 and LUMO at k-point 149
  | This appears to be an indirect band gap.
  | Smallest direct gap :      2.55410067 eV for k_point 1 at    0.000000    0.000000    0.000000 (in units of recip. lattice)
  The gap value is above 0.2 eV. Unless you are using a very sparse k-point grid,
  this system is most likely an insulator or a semiconductor.
  | Chemical Potential                          :    -5.05479806 eV

  Self-consistency cycle converged.


------------------------------------------------------------
  End self-consistency iteration #    11       :  max(cpu_time)    wall_clock(cpu1)
  | Time for this iteration                    :       24.851 s          19.533 s
  | Charge density & force component update    :       21.394 s          15.797 s
  | Density mixing                             :        0.001 s           0.001 s
  | Hartree multipole update                   :        0.001 s           0.001 s
  | Hartree multipole summation                :        1.896 s           2.184 s
  | Hartree pot. SCF incomplete forces         :        0.884 s           0.923 s
  | Integration                                :        0.418 s           0.370 s
  | Solution of K.-S. eqns.                    :        0.284 s           0.255 s
  | Total energy evaluation                    :        0.000 s           0.000 s

  Partial memory accounting:
  | Current value for overall tracked memory usage:
  |   Minimum:        5.528 MB (on task 1)
  |   Maximum:        5.528 MB (on task 0)
  |   Average:        5.528 MB
  | Peak value for overall tracked memory usage:
  |   Minimum:       20.659 MB (on task 1 after allocating d_wave)
  |   Maximum:       20.769 MB (on task 0 after allocating d_wave)
  |   Average:       20.714 MB
  | Largest tracked array allocation so far:
  |   Minimum:        3.601 MB (density_matrix_con on task 1)
  |   Maximum:        3.664 MB (density_matrix_con on task 0)
  |   Average:        3.632 MB
  Note:  These values currently only include a subset of arrays which are explicitly tracked.
  The "true" memory usage will be greater.
------------------------------------------------------------
  Removing unitary transformations (pure translations, rotations) from forces on atoms.
  Atomic forces before filtering:
  | Net force on center of mass :   0.322152E-08  0.708549E-08 -0.212888E-08 eV/A
  Atomic forces after filtering:
  | Net force on center of mass :   0.000000E+00  0.531692E-23  0.531692E-23 eV/A

  Energy and forces in a compact form:
  | Total energy uncorrected      :         -0.158026542119610E+05 eV
  | Total energy corrected        :         -0.158026542119610E+05 eV  <-- do not rely on this value for anything but (periodic) metals
  | Electronic free energy        :         -0.158026542119610E+05 eV
  Total atomic forces (unitary forces cleaned) [eV/Ang]:
  |    1          0.127343729633256E-06         -0.325012301206658E-07          0.440369217113700E-07
  |    2         -0.127343729633256E-06          0.325012301206658E-07         -0.440369217113700E-07

  ------------------------------------ 
  Start decomposition of the XC Energy 
  ------------------------------------ 
  X and C from original XC functional choice 
  Hartree-Fock Energy :          0.000000000 Ha              0.000000000 eV
  X Energy            :        -40.668082992 Ha          -1106.634843171 eV
  C Energy            :         -1.092347191 Ha            -29.724279410 eV
  Total XC Energy     :        -41.760430182 Ha          -1136.359122581 eV
  ------------------------------------ 
  LDA X and C from self-consistent density 
  X Energy LDA        :        -37.613298844 Ha          -1023.509937168 eV
  C Energy LDA        :         -2.145185582 Ha            -58.373469699 eV
  ------------------------------------ 
  End decomposition of the XC Energy 
  ------------------------------------ 

------------------------------------------------------------
  Relaxation / MD: End force evaluation.       :  max(cpu_time)    wall_clock(cpu1)
  | Time for this force evaluation             :       54.599 s          47.265 s

------------------------------------------------------------
  Geometry optimization: Attempting to predict improved coordinates.

  +-------------------------------------------------------------------+
  | Generalized derivatives on lattice vectors [eV/A]                 |
  +-------------------------------------------------------------------+
  |lattice_vector       0.00327287      -0.00327282      -0.00327281  |
  |lattice_vector      -0.00327287       0.00327282      -0.00327281  |
  |lattice_vector      -0.00327285      -0.00327280       0.00327281  |
  +-------------------------------------------------------------------+
  | Forces on lattice vectors cleaned from atomic contributions [eV/A]|
  +-------------------------------------------------------------------+
  |lattice_vector      -0.00327287       0.00327282       0.00327281  |
  |lattice_vector       0.00327287      -0.00327282       0.00327281  |
  |lattice_vector       0.00327285       0.00327280      -0.00327281  |
  +-------------------------------------------------------------------+
  Removing unitary transformations (pure translations, rotations) from forces on atoms.
  Atomic forces before filtering:
  | Net force on center of mass :   0.000000E+00  0.531692E-23  0.531692E-23 eV/A
  Atomic forces after filtering:
  | Net force on center of mass :   0.000000E+00  0.531692E-23 -0.531692E-23 eV/A
  Net remaining forces (excluding translations, rotations) in present geometry:
  || Forces on atoms   || =   0.127344E-06 eV/A.
  || Forces on lattice || =   0.327287E-02 eV/A^3.
  Maximum force component is  0.327287E-02 eV/A.
  Present geometry is converged.

------------------------------------------------------------
  Final atomic structure:
                         x [A]             y [A]             z [A]
  lattice_vector        -0.00000003        2.73831636        2.73831636
  lattice_vector         2.73831640        0.00000001        2.73831639
  lattice_vector         2.73831640        2.73831639        0.00000001

            atom        -0.00000001        0.00000000       -0.00000000  Si
            atom         1.36915820        1.36915819        1.36915819  Si

  Fractional coordinates:
                         L1                L2                L3
       atom_frac         0.00000000       -0.00000000       -0.00000000  Si
       atom_frac         0.25000000        0.25000000        0.25000000  Si
------------------------------------------------------------

------------------------------------------------------------------------------
  Final output of selected total energy values:

  The following output summarizes some interesting total energy values
  at the end of a run (AFTER all relaxation, molecular dynamics, etc.).

  | Total energy of the DFT / Hartree-Fock s.c.f. calculation      :         -15802.654211961 eV
  | Final zero-broadening corrected energy (caution - metals only) :         -15802.654211961 eV
  | For reference only, the value of 1 Hartree used in FHI-aims is :             27.211384500 eV
  | For reference only, the overall average (free atom contribution
  | + realspace contribution) of the electrostatic potential after
  | s.c.f. convergence is                                          :            -12.507298830 eV

  Before relying on these values, please be sure to understand exactly which
  total energy value is referred to by a given number. Different objects may
  all carry the same name 'total energy'. Definitions:

  Total energy of the DFT / Hartree-Fock s.c.f. calculation:
  | Note that this energy does not include ANY quantities calculated after the
  | s.c.f. cycle, in particular not ANY RPA, MP2, etc. many-body perturbation terms.

  Final zero-broadening corrected energy:
  | For metallic systems only, a broadening of the occupation numbers at the Fermi
  | level can be extrapolated back to zero broadening by an electron-gas inspired
  | formula. For all systems that are not real metals, this value can be
  | meaningless and should be avoided.

------------------------------------------------------------------------------
  Methods described in the following list of references were used in this FHI-aims run.
  If you publish the results, please make sure to cite these reference if they apply.
  FHI-aims is an academic code, and for our developers (often, Ph.D. students
  and postdocs), scientific credit in the community is essential.
  Thank you for helping us!

  For any use of FHI-aims, please cite:

    Volker Blum, Ralf Gehrke, Felix Hanke, Paula Havu, Ville Havu,
    Xinguo Ren, Karsten Reuter, and Matthias Scheffler
    'Ab initio molecular simulations with numeric atom-centered orbitals'
    Computer Physics Communications 180, 2175-2196 (2009)
    http://dx.doi.org/10.1016/j.cpc.2009.06.022


  For the analytical stress tensor used in your run, please cite:

    Franz Knuth, Christian Carbogno, Viktor Atalla, Volker Blum, Matthias Scheffler
    'All-electron formalism for total energy strain derivatives and
    stress tensor components for numeric atom-centered orbitals'
    Computer Physics Communications 190, 33-50 (2015).
    http://dx.doi.org/10.1016/j.cpc.2015.01.003


  The provided symmetry information was generated with SPGlib:

    Atsushi Togo, Yusuke Seto, Dimitar Pashov
    SPGlib 1.7.3 obtained from http://spglib.sourceforge.net
    Copyright (C) 2008 Atsushi Togo


  The ELSI infrastructure was used in your run to solve the Kohn-Sham electronic structure.
  Please check out http://elsi-interchange.org to learn more.
  If scalability is important for your project, please acknowledge ELSI by citing:

    V. W-z. Yu, F. Corsetti, A. Garcia, W. P. Huhn, M. Jacquelin, W. Jia,
    B. Lange, L. Lin, J. Lu, W. Mi, A. Seifitokaldani, A. Vazquez-Mayagoitia,
    C. Yang, H. Yang, and V. Blum
    'ELSI: A unified software interface for Kohn-Sham electronic structure solvers'
    Computer Physics Communications 222, 267-285 (2018).
    http://dx.doi.org/10.1016/j.cpc.2017.09.007


  For the real-space grid partitioning and parallelization used in this calculation, please cite:

    Ville Havu, Volker Blum, Paula Havu, and Matthias Scheffler,
    'Efficient O(N) integration for all-electron electronic structure calculation'
    'using numerically tabulated basis functions'
    Journal of Computational Physics 228, 8367-8379 (2009).
    http://dx.doi.org/10.1016/j.jcp.2009.08.008

  Of course, there are many other important community references, e.g., those cited in the
  above references. Our list is limited to references that describe implementations in the
  FHI-aims code. The reason is purely practical (length of this list) - please credit others as well.

------------------------------------------------------------
          Leaving FHI-aims.
          Date     :  20210825, Time     :  114527.924

          Computational steps:
          | Number of self-consistency cycles          :           34
          | Number of SCF (re)initializations          :            3
          | Number of relaxation steps                 :            2

          Detailed time accounting                     :  max(cpu_time)    wall_clock(cpu1)
          | Total time                                 :      166.647 s         136.936 s
          | Preparation time                           :        0.136 s           0.147 s
          | Boundary condition initalization           :        0.153 s           0.156 s
          | Grid partitioning                          :        0.101 s           0.110 s
          | Preloading free-atom quantities on grid    :        0.357 s           0.372 s
          | Free-atom superposition energy             :        0.060 s           0.061 s
          | Total time for integrations                :       15.474 s          12.749 s
          | Total time for solution of K.-S. equations :       10.194 s           9.624 s
          | Total time for EV reorthonormalization     :        0.142 s           0.131 s
          | Total time for density & force components  :      106.750 s          75.906 s
          | Total time for mixing & preconditioning    :        3.481 s           3.802 s
          | Total time for Hartree multipole update    :        0.026 s           0.030 s
          | Total time for Hartree multipole sum       :       24.700 s          26.655 s
          | Total time for total energy evaluation     :        0.013 s           0.016 s
          | Total time NSC force correction            :        5.341 s           6.481 s
          | Total time for scaled ZORA corrections     :        0.000 s           0.000 s

          Partial memory accounting:
          | Residual value for overall tracked memory usage across tasks:     0.000000 MB (should be 0.000000 MB)
          | Peak values for overall tracked memory usage:
          |   Minimum:       20.659 MB (on task 1 after allocating d_wave)
          |   Maximum:       20.769 MB (on task 0 after allocating d_wave)
          |   Average:       20.714 MB
          | Largest tracked array allocation:
          |   Minimum:        3.601 MB (density_matrix_con on task 1)
          |   Maximum:        3.664 MB (density_matrix_con on task 0)
          |   Average:        3.632 MB
          Note:  These values currently only include a subset of arrays which are explicitly tracked.
          The "true" memory usage will be greater.

          Have a nice day.
------------------------------------------------------------
