 vasp.6.1.1 19Jun20 (build Oct 26 2020 17:25:13) gamma-only                     
  
 executed on             LinuxIFC date 2021.02.18  00:48:06
 running on   48 total cores
 distrk:  each k-point on   48 cores,    1 groups
 distr:  one band on NCORE=  12 cores,    4 groups


--------------------------------------------------------------------------------------------------------


 INCAR:
 POTCAR:    PAW_PBE Cd 06Sep2000                  
 POTCAR:    PAW_PBE Te 08Apr2002                  
 POTCAR:    PAW_PBE Cd 06Sep2000                  
   VRHFIN =Cd : s2 d10                                                                              
   LEXCH  = PE                                                                                      
   EATOM  =  1293.1815 eV,   95.0462 Ry                                                             
                                                                                                    
   TITEL  = PAW_PBE Cd 06Sep2000                                                                    
   LULTRA =        F    use ultrasoft PP ?                                                          
   IUNSCR =        1    unscreen: 0-lin 1-nonlin 2-no                                               
   RPACOR =    2.000    partial core radius                                                         
   POMASS =  112.411; ZVAL   =   12.000    mass and valenz                                          
   RCORE  =    2.300    outmost cutoff radius                                                       
   RWIGS  =    2.980; RWIGS  =    1.577    wigner-seitz radius (au A)                               
   ENMAX  =  274.336; ENMIN  =  205.752 eV                                                          
   RCLOC  =    2.054    cutoff for local pot                                                        
   LCOR   =        T    correct aug charges                                                         
   LPAW   =        T    paw PP                                                                      
   EAUG   =  456.106                                                                                
   DEXC   =    0.000                                                                                
   RMAX   =    2.358    core radius for proj-oper                                                   
   RAUG   =    1.300    factor for augmentation sphere                                              
   RDEP   =    2.450    radius for radial grids                                                     
   RDEPT  =    1.955    core radius for aug-charge                                                  
                                                                                                    
   Atomic configuration                                                                             
   12 entries                                                                                       
     n  l   j            E        occ.                                                              
     1  0  0.50    -26519.7817   2.0000                                                             
     2  0  0.50     -3936.9612   2.0000                                                             
     2  1  1.50     -3532.2230   6.0000                                                             
     3  0  0.50      -733.7908   2.0000                                                             
     3  1  1.50      -601.0792   6.0000                                                             
     3  2  2.50      -393.5307  10.0000                                                             
     4  0  0.50      -105.8977   2.0000                                                             
     4  1  1.50       -66.9488   6.0000                                                             
     4  2  2.50       -11.7331  10.0000                                                             
     5  0  0.50        -5.6592   2.0000                                                             
     5  1  0.50        -1.3606   0.0000                                                             
     4  3  2.50        -1.3606   0.0000                                                             
   Description                                                                                      
     l       E           TYP  RCUT    TYP  RCUT                                                     
     2    -11.7331479     23  2.300                                                                 
     2    -13.0937305     23  2.300                                                                 
     0     -5.6591502     23  2.300                                                                 
     0     -1.5561433     23  2.300                                                                 
     1     -2.7211652     23  2.300                                                                 
     1      8.3548275     23  2.300                                                                 
  local pseudopotential read in
  partial core-charges read in
  partial kinetic energy density read in
  atomic valenz-charges read in
  non local Contribution for L=           2  read in
    real space projection operators read in
  non local Contribution for L=           2  read in
    real space projection operators read in
  non local Contribution for L=           0  read in
    real space projection operators read in
  non local Contribution for L=           0  read in
    real space projection operators read in
  non local Contribution for L=           1  read in
    real space projection operators read in
  non local Contribution for L=           1  read in
    real space projection operators read in
    PAW grid and wavefunctions read in
 
   number of l-projection  operators is LMAX  =           6
   number of lm-projection operators is LMMAX =          18
 
 POTCAR:    PAW_PBE Te 08Apr2002                  
   VRHFIN =Te: s2p4                                                                                 
   LEXCH  = PE                                                                                      
   EATOM  =   223.2721 eV,   16.4100 Ry                                                             
                                                                                                    
   TITEL  = PAW_PBE Te 08Apr2002                                                                    
   LULTRA =        F    use ultrasoft PP ?                                                          
   IUNSCR =        1    unscreen: 0-lin 1-nonlin 2-no                                               
   RPACOR =    2.200    partial core radius                                                         
   POMASS =  127.600; ZVAL   =    6.000    mass and valenz                                          
   RCORE  =    2.300    outmost cutoff radius                                                       
   RWIGS  =    2.900; RWIGS  =    1.535    wigner-seitz radius (au A)                               
   ENMAX  =  174.982; ENMIN  =  131.236 eV                                                          
   ICORE  =        3    local potential                                                             
   LCOR   =        T    correct aug charges                                                         
   LPAW   =        T    paw PP                                                                      
   EAUG   =  368.792                                                                                
   DEXC   =    0.000                                                                                
   RMAX   =    2.345    core radius for proj-oper                                                   
   RAUG   =    1.300    factor for augmentation sphere                                              
   RDEP   =    2.397    radius for radial grids                                                     
   RDEPT  =    2.174    core radius for aug-charge                                                  
                                                                                                    
   Atomic configuration                                                                             
   13 entries                                                                                       
     n  l   j            E        occ.                                                              
     1  0  0.50    -31621.2075   2.0000                                                             
     2  0  0.50     -4848.7941   2.0000                                                             
     2  1  1.50     -4352.1960   6.0000                                                             
     3  0  0.50      -964.9612   2.0000                                                             
     3  1  1.50      -803.6179   6.0000                                                             
     3  2  2.50      -559.8710  10.0000                                                             
     4  0  0.50      -164.3522   2.0000                                                             
     4  1  1.50      -114.3756   6.0000                                                             
     4  2  2.50       -41.6483  10.0000                                                             
     5  0  0.50       -15.1072   2.0000                                                             
     5  1  0.50        -5.9526   4.0000                                                             
     5  2  1.50        -5.4423   0.0000                                                             
     4  3  2.50        -5.4423   0.0000                                                             
   Description                                                                                      
     l       E           TYP  RCUT    TYP  RCUT                                                     
     0    -15.1072389     23  2.300                                                                 
     0    -16.4678215     23  2.300                                                                 
     1     -5.9526306     23  2.300                                                                 
     1     -2.4873968     23  2.300                                                                 
     2     -5.4423304     23  2.300                                                                 
     3     -1.3605826     23  2.300                                                                 
  local pseudopotential read in
  partial core-charges read in
  partial kinetic energy density read in
  atomic valenz-charges read in
  non local Contribution for L=           0  read in
    real space projection operators read in
  non local Contribution for L=           0  read in
    real space projection operators read in
  non local Contribution for L=           1  read in
    real space projection operators read in
  non local Contribution for L=           1  read in
    real space projection operators read in
  non local Contribution for L=           2  read in
    real space projection operators read in
    PAW grid and wavefunctions read in
 
   number of l-projection  operators is LMAX  =           5
   number of lm-projection operators is LMMAX =          13
 
 Optimization of the real space projectors (new method)

 maximal supplied QI-value         = 16.25
 optimisation between [QCUT,QGAM] = [ 10.73, 21.61] = [ 32.22,130.83] Ry 
 Optimized for a Real-space Cutoff    1.34 Angstroem

   l    n(q)    QCUT    max X(q) W(low)/X(q) W(high)/X(q)  e(spline) 
   2      8    10.726    73.106    0.62E-03    0.58E-03    0.13E-06
   2      8    10.726    71.731    0.63E-03    0.59E-03    0.13E-06
   0      9    10.726   146.509    0.37E-03    0.31E-03    0.93E-07
   0      9    10.726    95.017    0.35E-03    0.30E-03    0.90E-07
   1      8    10.726    36.165    0.40E-03    0.62E-04    0.20E-06
   1      8    10.726    31.530    0.37E-03    0.46E-04    0.19E-06
 Optimization of the real space projectors (new method)

 maximal supplied QI-value         = 16.25
 optimisation between [QCUT,QGAM] = [ 10.73, 21.61] = [ 32.22,130.83] Ry 
 Optimized for a Real-space Cutoff    1.26 Angstroem

   l    n(q)    QCUT    max X(q) W(low)/X(q) W(high)/X(q)  e(spline) 
   0      8    10.726   224.858    0.42E-03    0.29E-03    0.13E-06
   0      8    10.726   205.313    0.42E-03    0.29E-03    0.14E-06
   1      8    10.726   119.695    0.28E-03    0.65E-03    0.18E-06
   1      8    10.726    84.282    0.28E-03    0.64E-03    0.18E-06
   2      7    10.726     5.599    0.26E-03    0.18E-03    0.37E-07
  PAW_PBE Cd 06Sep2000                  :
 energy of atom  1       EATOM=-1293.1815
 kinetic energy error for atom=    0.0084 (will be added to EATOM!!)
  PAW_PBE Te 08Apr2002                  :
 energy of atom  2       EATOM= -223.2721
 kinetic energy error for atom=    0.0008 (will be added to EATOM!!)
 
 
 POSCAR: vac_1_Cd[0. 0. 0.]_KV=-dNELECT=-2
  positions in direct lattice
  No initial velocities read in
 exchange correlation table for  LEXCH =        8
   RHO(1)=    0.500       N(1)  =     2000
   RHO(2)=  100.500       N(2)  =     4000
 


--------------------------------------------------------------------------------------------------------


 ion  position               nearest neighbor table
   1  0.000  0.000  0.500-  32 2.83  43 2.83  53 2.83  62 2.83
   2  0.000  0.500  0.000-  35 2.83  40 2.83  54 2.83  61 2.83
   3  0.000  0.500  0.500-  34 2.83  41 2.83  55 2.83  60 2.83
   4  0.500  0.000  0.000-  37 2.83  46 2.83  48 2.83  59 2.83
   5  0.500  0.000  0.500-  36 2.83  47 2.83  49 2.83  58 2.83
   6  0.500  0.500  0.000-  39 2.83  44 2.83  50 2.83  57 2.83
   7  0.500  0.500  0.500-  38 2.83  45 2.83  51 2.83  56 2.83
   8  0.000  0.250  0.250-  32 2.83  40 2.83  52 2.83  60 2.83
   9  0.000  0.250  0.750-  33 2.83  41 2.83  53 2.83  61 2.83
  10  0.000  0.750  0.250-  34 2.83  42 2.83  54 2.83  62 2.83
  11  0.000  0.750  0.750-  35 2.83  43 2.83  55 2.83  63 2.83
  12  0.500  0.250  0.250-  36 2.83  44 2.83  48 2.83  56 2.83
  13  0.500  0.250  0.750-  37 2.83  45 2.83  49 2.83  57 2.83
  14  0.500  0.750  0.250-  38 2.83  46 2.83  50 2.83  58 2.83
  15  0.500  0.750  0.750-  39 2.83  47 2.83  51 2.83  59 2.83
  16  0.250  0.000  0.250-  32 2.83  42 2.83  48 2.83  58 2.83
  17  0.250  0.000  0.750-  33 2.83  43 2.83  49 2.83  59 2.83
  18  0.250  0.500  0.250-  34 2.83  40 2.83  50 2.83  56 2.83
  19  0.250  0.500  0.750-  35 2.83  41 2.83  51 2.83  57 2.83
  20  0.750  0.000  0.250-  36 2.83  46 2.83  52 2.83  62 2.83
  21  0.750  0.000  0.750-  37 2.83  47 2.83  53 2.83  63 2.83
  22  0.750  0.500  0.250-  38 2.83  44 2.83  54 2.83  60 2.83
  23  0.750  0.500  0.750-  39 2.83  45 2.83  55 2.83  61 2.83
  24  0.250  0.250  0.000-  33 2.83  40 2.83  48 2.83  57 2.83
  25  0.250  0.250  0.500-  32 2.83  41 2.83  49 2.83  56 2.83
  26  0.250  0.750  0.000-  35 2.83  42 2.83  50 2.83  59 2.83
  27  0.250  0.750  0.500-  34 2.83  43 2.83  51 2.83  58 2.83
  28  0.750  0.250  0.000-  37 2.83  44 2.83  52 2.83  61 2.83
  29  0.750  0.250  0.500-  36 2.83  45 2.83  53 2.83  60 2.83
  30  0.750  0.750  0.000-  39 2.83  46 2.83  54 2.83  63 2.83
  31  0.750  0.750  0.500-  38 2.83  47 2.83  55 2.83  62 2.83
  32  0.125  0.125  0.375-   1 2.83   8 2.83  16 2.83  25 2.83
  33  0.125  0.125  0.875-   9 2.83  17 2.83  24 2.83
  34  0.125  0.625  0.375-   3 2.83  10 2.83  18 2.83  27 2.83
  35  0.125  0.625  0.875-   2 2.83  11 2.83  19 2.83  26 2.83
  36  0.625  0.125  0.375-   5 2.83  12 2.83  20 2.83  29 2.83
  37  0.625  0.125  0.875-   4 2.83  13 2.83  21 2.83  28 2.83
  38  0.625  0.625  0.375-   7 2.83  14 2.83  22 2.83  31 2.83
  39  0.625  0.625  0.875-   6 2.83  15 2.83  23 2.83  30 2.83
  40  0.125  0.375  0.125-   2 2.83   8 2.83  18 2.83  24 2.83
  41  0.125  0.375  0.625-   3 2.83   9 2.83  19 2.83  25 2.83
  42  0.125  0.875  0.125-  10 2.83  16 2.83  26 2.83
  43  0.125  0.875  0.625-   1 2.83  11 2.83  17 2.83  27 2.83
  44  0.625  0.375  0.125-   6 2.83  12 2.83  22 2.83  28 2.83
  45  0.625  0.375  0.625-   7 2.83  13 2.83  23 2.83  29 2.83
  46  0.625  0.875  0.125-   4 2.83  14 2.83  20 2.83  30 2.83
  47  0.625  0.875  0.625-   5 2.83  15 2.83  21 2.83  31 2.83
  48  0.375  0.125  0.125-   4 2.83  12 2.83  16 2.83  24 2.83
  49  0.375  0.125  0.625-   5 2.83  13 2.83  17 2.83  25 2.83
  50  0.375  0.625  0.125-   6 2.83  14 2.83  18 2.83  26 2.83
  51  0.375  0.625  0.625-   7 2.83  15 2.83  19 2.83  27 2.83
  52  0.875  0.125  0.125-   8 2.83  20 2.83  28 2.83
  53  0.875  0.125  0.625-   1 2.83   9 2.83  21 2.83  29 2.83
  54  0.875  0.625  0.125-   2 2.83  10 2.83  22 2.83  30 2.83
  55  0.875  0.625  0.625-   3 2.83  11 2.83  23 2.83  31 2.83
  56  0.375  0.375  0.375-   7 2.83  12 2.83  18 2.83  25 2.83
  57  0.375  0.375  0.875-   6 2.83  13 2.83  19 2.83  24 2.83
  58  0.375  0.875  0.375-   5 2.83  14 2.83  16 2.83  27 2.83
  59  0.375  0.875  0.875-   4 2.83  15 2.83  17 2.83  26 2.83
  60  0.875  0.375  0.375-   3 2.83   8 2.83  22 2.83  29 2.83
  61  0.875  0.375  0.875-   2 2.83   9 2.83  23 2.83  28 2.83
  62  0.875  0.875  0.375-   1 2.83  10 2.83  20 2.83  31 2.83
  63  0.875  0.875  0.875-  11 2.83  21 2.83  30 2.83
 

IMPORTANT INFORMATION: All symmetrisations will be switched off!
NOSYMM: (Re-)initialisation of all symmetry stuff for point group C_1.


----------------------------------------------------------------------------------------

                                     Primitive cell                                     

  volume of cell :    2241.2856

  direct lattice vectors                    reciprocal lattice vectors
    13.086768000  0.000000000  0.000000000     0.076413061  0.000000000  0.000000000
     0.000000000 13.086768000  0.000000000     0.000000000  0.076413061  0.000000000
     0.000000000  0.000000000 13.086768000     0.000000000  0.000000000  0.076413061

  length of vectors
    13.086768000 13.086768000 13.086768000     0.076413061  0.076413061  0.076413061

  position of ions in fractional coordinates (direct lattice)
     0.000000000  0.000000000  0.500000000
     0.000000000  0.500000000  0.000000000
     0.000000000  0.500000000  0.500000000
     0.500000000  0.000000000  0.000000000
     0.500000000  0.000000000  0.500000000
     0.500000000  0.500000000  0.000000000
     0.500000000  0.500000000  0.500000000
     0.000000000  0.250000000  0.250000000
     0.000000000  0.250000000  0.750000000
     0.000000000  0.750000000  0.250000000
     0.000000000  0.750000000  0.750000000
     0.500000000  0.250000000  0.250000000
     0.500000000  0.250000000  0.750000000
     0.500000000  0.750000000  0.250000000
     0.500000000  0.750000000  0.750000000
     0.250000000  0.000000000  0.250000000
     0.250000000  0.000000000  0.750000000
     0.250000000  0.500000000  0.250000000
     0.250000000  0.500000000  0.750000000
     0.750000000  0.000000000  0.250000000
     0.750000000  0.000000000  0.750000000
     0.750000000  0.500000000  0.250000000
     0.750000000  0.500000000  0.750000000
     0.250000000  0.250000000  0.000000000
     0.250000000  0.250000000  0.500000000
     0.250000000  0.750000000  0.000000000
     0.250000000  0.750000000  0.500000000
     0.750000000  0.250000000  0.000000000
     0.750000000  0.250000000  0.500000000
     0.750000000  0.750000000  0.000000000
     0.750000000  0.750000000  0.500000000
     0.125000000  0.125000000  0.375000000
     0.125000000  0.125000000  0.875000000
     0.125000000  0.625000000  0.375000000
     0.125000000  0.625000000  0.875000000
     0.625000000  0.125000000  0.375000000
     0.625000000  0.125000000  0.875000000
     0.625000000  0.625000000  0.375000000
     0.625000000  0.625000000  0.875000000
     0.125000000  0.375000000  0.125000000
     0.125000000  0.375000000  0.625000000
     0.125000000  0.875000000  0.125000000
     0.125000000  0.875000000  0.625000000
     0.625000000  0.375000000  0.125000000
     0.625000000  0.375000000  0.625000000
     0.625000000  0.875000000  0.125000000
     0.625000000  0.875000000  0.625000000
     0.375000000  0.125000000  0.125000000
     0.375000000  0.125000000  0.625000000
     0.375000000  0.625000000  0.125000000
     0.375000000  0.625000000  0.625000000
     0.875000000  0.125000000  0.125000000
     0.875000000  0.125000000  0.625000000
     0.875000000  0.625000000  0.125000000
     0.875000000  0.625000000  0.625000000
     0.375000000  0.375000000  0.375000000
     0.375000000  0.375000000  0.875000000
     0.375000000  0.875000000  0.375000000
     0.375000000  0.875000000  0.875000000
     0.875000000  0.375000000  0.375000000
     0.875000000  0.375000000  0.875000000
     0.875000000  0.875000000  0.375000000
     0.875000000  0.875000000  0.875000000

  ion indices of the primitive-cell ions
   primitive index   ion index
                 1           1
                 2           2
                 3           3
                 4           4
                 5           5
                 6           6
                 7           7
                 8           8
                 9           9
                10          10
                11          11
                12          12
                13          13
                14          14
                15          15
                16          16
                17          17
                18          18
                19          19
                20          20
                21          21
                22          22
                23          23
                24          24
                25          25
                26          26
                27          27
                28          28
                29          29
                30          30
                31          31
                32          32
                33          33
                34          34
                35          35
                36          36
                37          37
                38          38
                39          39
                40          40
                41          41
                42          42
                43          43
                44          44
                45          45
                46          46
                47          47
                48          48
                49          49
                50          50
                51          51
                52          52
                53          53
                54          54
                55          55
                56          56
                57          57
                58          58
                59          59
                60          60
                61          61
                62          62
                63          63

----------------------------------------------------------------------------------------

 
 
 KPOINTS: Kpoints from DefectsWithTheBoys.vasp_gam

Automatic generation of k-mesh.
Space group operators:
 irot       det(A)        alpha          n_x          n_y          n_z        tau_x        tau_y        tau_z
    1     1.000000     0.000000     1.000000     0.000000     0.000000     0.000000     0.000000     0.000000
 
 Subroutine IBZKPT returns following result:
 ===========================================
 
 Found      1 irreducible k-points:
 
 Following reciprocal coordinates:
            Coordinates               Weight
  0.000000  0.000000  0.000000      1.000000
 
 Following cartesian coordinates:
            Coordinates               Weight
  0.000000  0.000000  0.000000      1.000000
 
 
 Subroutine IBZKPT_HF returns following result:
 ==============================================
 
 Found      1 k-points in 1st BZ
 the following      1 k-points will be used (e.g. in the exchange kernel)
 Following reciprocal coordinates:   # in IRBZ
  0.000000  0.000000  0.000000    1.00000000   1 t-inv F


--------------------------------------------------------------------------------------------------------




 Dimension of arrays:
   k-points           NKPTS =      1   k-points in BZ     NKDIM =      1   number of bands    NBANDS=    340
   number of dos      NEDOS =   2000   number of ions     NIONS =     63
   non local maximal  LDIM  =      6   non local SUM 2l+1 LMDIM =     18
   total plane-waves  NPLWV = 884736
   max r-space proj   IRMAX =   4034   max aug-charges    IRDMAX=  23156
   dimension x,y,z NGX =    96 NGY =   96 NGZ =   96
   dimension x,y,z NGXF=   192 NGYF=  192 NGZF=  192
   support grid    NGXF=   192 NGYF=  192 NGZF=  192
   ions per type =              31  32
   NGX,Y,Z   is equivalent  to a cutoff of  12.20, 12.20, 12.20 a.u.
   NGXF,Y,Z  is equivalent  to a cutoff of  24.39, 24.39, 24.39 a.u.

 SYSTEM =  unknown system                          
 POSCAR =  vac_1_Cd[0. 0. 0.]_KV=-dNELECT=-2       

 Startparameter for this run:
   NWRITE =      2    write-flag & timer
   PREC   = accura    normal or accurate (medium, high low for compatibility)
   ISTART =      0    job   : 0-new  1-cont  2-samecut
   ICHARG =      1    charge: 1-file 2-atom 10-const
   ISPIN  =      1    spin polarized calculation?
   LNONCOLLINEAR =      F non collinear calculations
   LSORBIT =      F    spin-orbit coupling
   INIWAV =      1    electr: 0-lowe 1-rand  2-diag
   LASPH  =      T    aspherical Exc in radial PAW
   METAGGA=      F    non-selfconsistent MetaGGA calc.

 Electronic Relaxation 1
   ENCUT  =  450.0 eV  33.07 Ry    5.75 a.u.  22.64 22.64 22.64*2*pi/ulx,y,z
   ENINI  =  450.0     initial cutoff
   ENAUG  =  456.1 eV  augmentation charge cutoff
   NELM   =    100;   NELMIN=  2; NELMDL= -5     # of ELM steps 
   EDIFF  = 0.5E-05   stopping-criterion for ELM
   LREAL  =      T    real-space projection
   NLSPLINE    = F    spline interpolate recip. space projectors
   LCOMPAT=      F    compatible to vasp.4.4
   GGA_COMPAT  = T    GGA compatible to vasp.4.4-vasp.4.6
   LMAXPAW     = -100 max onsite density
   LMAXMIX     =    2 max onsite mixed and CHGCAR
   VOSKOWN=      0    Vosko Wilk Nusair interpolation
   ROPT   =   -0.00100  -0.00100
 Ionic relaxation
   EDIFFG = -.1E-01   stopping-criterion for IOM
   NSW    =    300    number of steps for IOM
   NBLOCK =      1;   KBLOCK =    300    inner block; outer block 
   IBRION =      2    ionic relax: 0-MD 1-quasi-New 2-CG
   NFREE  =      1    steps in history (QN), initial steepest desc. (CG)
   ISIF   =      2    stress and relaxation
   IWAVPR =     11    prediction:  0-non 1-charg 2-wave 3-comb
   ISYM   =      0    0-nonsym 1-usesym 2-fastsym
   LCORR  =      T    Harris-Foulkes like correction to forces

   POTIM  = 0.2000    time-step for ionic-motion
   TEIN   =    0.0    initial temperature
   TEBEG  =    0.0;   TEEND  =   0.0 temperature during run
   SMASS  =  -3.00    Nose mass-parameter (am)
   estimated Nose-frequenzy (Omega)   =  0.10E-29 period in steps = 0.31E+47 mass=  -0.391E-26a.u.
   SCALEE = 1.0000    scale energy and forces
   NPACO  =    256;   APACO  = 16.0  distance and # of slots for P.C.
   PSTRESS=    0.0 pullay stress

  Mass of Ions in am
   POMASS = 112.41127.60
  Ionic Valenz
   ZVAL   =  12.00  6.00
  Atomic Wigner-Seitz radii
   RWIGS  =  -1.00 -1.00
  virtual crystal weights 
   VCA    =   1.00  1.00
   NELECT =     566.0000    total number of electrons
   NUPDOWN=       0.0000    fix difference up-down

 DOS related values:
   EMIN   =  10.00;   EMAX   =-10.00  energy-range for DOS
   EFERMI =   0.00
   ISMEAR =     0;   SIGMA  =   0.05  broadening in eV -4-tet -1-fermi 0-gaus

 Electronic relaxation 2 (details)
   IALGO  =     38    algorithm
   LDIAG  =      T    sub-space diagonalisation (order eigenvalues)
   LSUBROT=      F    optimize rotation matrix (better conditioning)
   TURBO    =      0    0=normal 1=particle mesh
   IRESTART =      0    0=no restart 2=restart with 2 vectors
   NREBOOT  =      0    no. of reboots
   NMIN     =      0    reboot dimension
   EREF     =   0.00    reference energy to select bands
   IMIX   =      1    mixing-type and parameters
     AMIX     =   0.40;   BMIX     =  1.00
     AMIX_MAG =   1.60;   BMIX_MAG =  1.00
     AMIN     =   0.10
     WC   =   100.;   INIMIX=   1;  MIXPRE=   1;  MAXMIX= -45

 Intra band minimization:
   WEIMIN = 0.0010     energy-eigenvalue tresh-hold
   EBREAK =  0.37E-08  absolut break condition
   DEPER  =   0.30     relativ break condition  

   TIME   =   0.40     timestep for ELM

  volume/ion in A,a.u.               =      35.58       240.08
  Fermi-wavevector in a.u.,A,eV,Ry     =   1.034780  1.955450 14.568697  1.070769
  Thomas-Fermi vector in A             =   2.169091
 
 Write flags
   LWAVE        =      F    write WAVECAR
   LDOWNSAMPLE  =      F    k-point downsampling of WAVECAR
   LCHARG       =      T    write CHGCAR
   LVTOT        =      F    write LOCPOT, total local potential
   LVHAR        =      F    write LOCPOT, Hartree potential only
   LELF         =      F    write electronic localiz. function (ELF)
   LORBIT       =     11    0 simple, 1 ext, 2 COOP (PROOUT), +10 PAW based schemes


 Dipole corrections
   LMONO  =      F    monopole corrections only (constant potential shift)
   LDIPOL =      F    correct potential (dipole corrections)
   IDIPOL =      0    1-x, 2-y, 3-z, 4-all directions 
   EPSILON=  1.0000000 bulk dielectric constant

 Exchange correlation treatment:
   GGA     =    --    GGA type
   LEXCH   =     8    internal setting for exchange type
   VOSKOWN=      0    Vosko Wilk Nusair interpolation
   EXXOEP  =     0    0=HF, 1=EXX-LHF (local Hartree Fock) 2=EXX OEP
   LHFCALC =     T    Hartree Fock is set to
   LSYMGRAD=     F    symmetrize gradient (conserves proper symmetry)
   PRECFOCK=fast      Normal, Fast or Accurate (Low or Medium for compatibility)
   LRHFCALC=     F    long range Hartree Fock
   LRSCOR  =     F    long range correlation only (use DFT for short range part)
   LTHOMAS =     F    Thomas Fermi screening in HF
   LMODELHF=     F    short range full HF, long range fraction AEXX
   LFOCKACE=     T    use Adeptively-Compressed-Exchange operator
   ENCUT4O =  -1.0   cutoff for four orbital integrals eV
   LMAXFOCK=     4    L truncation for augmentation on plane wave grid
   LMAXFOCKAE=  -1    L truncation for all-electron charge restoration on plane wave grid
   NMAXFOCKAE=   1    number of basis functions for all-electron charge restoration
   LFOCKAEDFT=     F  apply the AE augmentation even for DFT
   NKREDX  =     1    reduce k-point grid by
   NKREDY  =     1    reduce k-point grid by
   NKREDZ  =     1    reduce k-point grid by
   SHIFTRED=     F    shift reduced grid of Gamma
   HFKIDENT=     F    idential grid for each k-point
   ODDONLY =     F    use only odd q-grid points
   EVENONLY=     F    use only even q-grid points
   HFALPHA =   -1.0000 decay constant for conv. correction
   MCALPHA =    0.0000 extent of test-charge in conv. correction in multipole expansion
   AEXX    =    0.3450 exact exchange contribution
   HFSCREEN=    0.2000 screening length (either q_TF or 0.3 A-1)
   HFSCREENC=   0.2000 screening length for correlation (either q_TF or 0.3 A-1)
   HFRCUT  =    0.0000 spherical cutoff for potential kernel
   ALDAX   =    0.6550 LDA exchange part
   AGGAX   =    0.6550 GGA exchange part
   ALDAC   =    1.0000 LDA correlation
   AGGAC   =    1.0000 GGA correlation
   ENCUTFOCK=  -1.0 apply spherical cutoff to Coloumb kernel
   NBANDSGWLOW=     1    first orbital included in HF term
   NBLOCK_FOCK=    64    blocking factor in FOCK_ACC
 Linear response parameters
   LEPSILON=     F    determine dielectric tensor
   LRPA    =     F    only Hartree local field effects (RPA)
   LNABLA  =     F    use nabla operator in PAW spheres
   LVEL    =     F    velocity operator in full k-point grid
   LINTERFAST=   F  fast interpolation
   KINTER  =     0    interpolate to denser k-point grid
   CSHIFT  =0.1000    complex shift for real part using Kramers Kronig
   OMEGAMAX=  -1.0    maximum frequency
   DEG_THRESHOLD= 0.2000000E-02 threshold for treating states as degnerate
   RTIME   =   -0.100 relaxation time in fs
  (WPLASMAI=    0.000 imaginary part of plasma frequency in eV, 0.658/RTIME)
   DFIELD  = 0.0000000 0.0000000 0.0000000 field for delta impulse in time
 
 Orbital magnetization related:
   ORBITALMAG=     F  switch on orbital magnetization
   LCHIMAG   =     F  perturbation theory with respect to B field
   DQ        =  0.001000  dq finite difference perturbation B field
   LLRAUG    =     F  two centre corrections for induced B field



--------------------------------------------------------------------------------------------------------


 conjugate gradient relaxation of ions
 charge density and potential will be updated during run
 non-spin polarized calculation
 Variant of blocked Davidson
 Davidson routine will perform the subspace rotation
 perform sub-space diagonalisation
    after iterative eigenvector-optimisation
 Kerker-like  mixing scheme
 using additional bands           57
 real space projection scheme for non local part
 use partial core corrections
 calculate Harris-corrections to forces 
   (improved forces if not selfconsistent)
 use gradient corrections 
 use of overlap-Matrix (Vanderbilt PP)
 Gauss-broadening in eV      SIGMA  =   0.05


--------------------------------------------------------------------------------------------------------


  energy-cutoff  :      450.00
  volume of cell :     2241.29
      direct lattice vectors                 reciprocal lattice vectors
    13.086768000  0.000000000  0.000000000     0.076413061  0.000000000  0.000000000
     0.000000000 13.086768000  0.000000000     0.000000000  0.076413061  0.000000000
     0.000000000  0.000000000 13.086768000     0.000000000  0.000000000  0.076413061

  length of vectors
    13.086768000 13.086768000 13.086768000     0.076413061  0.076413061  0.076413061


 
 k-points in units of 2pi/SCALE and weight: Kpoints from DefectsWithTheBoys.vasp_gam
   0.00000000  0.00000000  0.00000000       1.000
 
 k-points in reciprocal lattice and weights: Kpoints from DefectsWithTheBoys.vasp_gam
   0.00000000  0.00000000  0.00000000       1.000
 
 position of ions in fractional coordinates (direct lattice) 
   0.00000000  0.00000000  0.50000000
   0.00000000  0.50000000  0.00000000
   0.00000000  0.50000000  0.50000000
   0.50000000  0.00000000  0.00000000
   0.50000000  0.00000000  0.50000000
   0.50000000  0.50000000  0.00000000
   0.50000000  0.50000000  0.50000000
   0.00000000  0.25000000  0.25000000
   0.00000000  0.25000000  0.75000000
   0.00000000  0.75000000  0.25000000
   0.00000000  0.75000000  0.75000000
   0.50000000  0.25000000  0.25000000
   0.50000000  0.25000000  0.75000000
   0.50000000  0.75000000  0.25000000
   0.50000000  0.75000000  0.75000000
   0.25000000  0.00000000  0.25000000
   0.25000000  0.00000000  0.75000000
   0.25000000  0.50000000  0.25000000
   0.25000000  0.50000000  0.75000000
   0.75000000  0.00000000  0.25000000
   0.75000000  0.00000000  0.75000000
   0.75000000  0.50000000  0.25000000
   0.75000000  0.50000000  0.75000000
   0.25000000  0.25000000  0.00000000
   0.25000000  0.25000000  0.50000000
   0.25000000  0.75000000  0.00000000
   0.25000000  0.75000000  0.50000000
   0.75000000  0.25000000  0.00000000
   0.75000000  0.25000000  0.50000000
   0.75000000  0.75000000  0.00000000
   0.75000000  0.75000000  0.50000000
   0.12500000  0.12500000  0.37500000
   0.12500000  0.12500000  0.87500000
   0.12500000  0.62500000  0.37500000
   0.12500000  0.62500000  0.87500000
   0.62500000  0.12500000  0.37500000
   0.62500000  0.12500000  0.87500000
   0.62500000  0.62500000  0.37500000
   0.62500000  0.62500000  0.87500000
   0.12500000  0.37500000  0.12500000
   0.12500000  0.37500000  0.62500000
   0.12500000  0.87500000  0.12500000
   0.12500000  0.87500000  0.62500000
   0.62500000  0.37500000  0.12500000
   0.62500000  0.37500000  0.62500000
   0.62500000  0.87500000  0.12500000
   0.62500000  0.87500000  0.62500000
   0.37500000  0.12500000  0.12500000
   0.37500000  0.12500000  0.62500000
   0.37500000  0.62500000  0.12500000
   0.37500000  0.62500000  0.62500000
   0.87500000  0.12500000  0.12500000
   0.87500000  0.12500000  0.62500000
   0.87500000  0.62500000  0.12500000
   0.87500000  0.62500000  0.62500000
   0.37500000  0.37500000  0.37500000
   0.37500000  0.37500000  0.87500000
   0.37500000  0.87500000  0.37500000
   0.37500000  0.87500000  0.87500000
   0.87500000  0.37500000  0.37500000
   0.87500000  0.37500000  0.87500000
   0.87500000  0.87500000  0.37500000
   0.87500000  0.87500000  0.87500000
 
 position of ions in cartesian coordinates  (Angst):
   0.00000000  0.00000000  6.54338400
   0.00000000  6.54338400  0.00000000
   0.00000000  6.54338400  6.54338400
   6.54338400  0.00000000  0.00000000
   6.54338400  0.00000000  6.54338400
   6.54338400  6.54338400  0.00000000
   6.54338400  6.54338400  6.54338400
   0.00000000  3.27169200  3.27169200
   0.00000000  3.27169200  9.81507600
   0.00000000  9.81507600  3.27169200
   0.00000000  9.81507600  9.81507600
   6.54338400  3.27169200  3.27169200
   6.54338400  3.27169200  9.81507600
   6.54338400  9.81507600  3.27169200
   6.54338400  9.81507600  9.81507600
   3.27169200  0.00000000  3.27169200
   3.27169200  0.00000000  9.81507600
   3.27169200  6.54338400  3.27169200
   3.27169200  6.54338400  9.81507600
   9.81507600  0.00000000  3.27169200
   9.81507600  0.00000000  9.81507600
   9.81507600  6.54338400  3.27169200
   9.81507600  6.54338400  9.81507600
   3.27169200  3.27169200  0.00000000
   3.27169200  3.27169200  6.54338400
   3.27169200  9.81507600  0.00000000
   3.27169200  9.81507600  6.54338400
   9.81507600  3.27169200  0.00000000
   9.81507600  3.27169200  6.54338400
   9.81507600  9.81507600  0.00000000
   9.81507600  9.81507600  6.54338400
   1.63584600  1.63584600  4.90753800
   1.63584600  1.63584600 11.45092200
   1.63584600  8.17923000  4.90753800
   1.63584600  8.17923000 11.45092200
   8.17923000  1.63584600  4.90753800
   8.17923000  1.63584600 11.45092200
   8.17923000  8.17923000  4.90753800
   8.17923000  8.17923000 11.45092200
   1.63584600  4.90753800  1.63584600
   1.63584600  4.90753800  8.17923000
   1.63584600 11.45092200  1.63584600
   1.63584600 11.45092200  8.17923000
   8.17923000  4.90753800  1.63584600
   8.17923000  4.90753800  8.17923000
   8.17923000 11.45092200  1.63584600
   8.17923000 11.45092200  8.17923000
   4.90753800  1.63584600  1.63584600
   4.90753800  1.63584600  8.17923000
   4.90753800  8.17923000  1.63584600
   4.90753800  8.17923000  8.17923000
  11.45092200  1.63584600  1.63584600
  11.45092200  1.63584600  8.17923000
  11.45092200  8.17923000  1.63584600
  11.45092200  8.17923000  8.17923000
   4.90753800  4.90753800  4.90753800
   4.90753800  4.90753800 11.45092200
   4.90753800 11.45092200  4.90753800
   4.90753800 11.45092200 11.45092200
  11.45092200  4.90753800  4.90753800
  11.45092200  4.90753800 11.45092200
  11.45092200 11.45092200  4.90753800
  11.45092200 11.45092200 11.45092200
 


--------------------------------------------------------------------------------------------------------


 use parallel FFT for orbitals z direction half grid
 k-point   1 :   0.0000 0.0000 0.0000  plane waves:   24251

 maximum and minimum number of plane-waves per node :      2027     2015

 maximum number of plane-waves:     24251
 maximum index in each direction: 
   IXMAX=   22   IYMAX=   22   IZMAX=   22
   IXMIN=  -22   IYMIN=  -22   IZMIN=    0


 real space projection operators:
  total allocation   :      27471.64 KBytes
  max/ min on nodes  :       2555.47       2086.55


 parallel 3D FFT for wavefunctions:
    minimum data exchange during FFTs selected (reduces bandwidth)
 parallel 3D FFT for charge:
    minimum data exchange during FFTs selected (reduces bandwidth)


 FFT grid for exact exchange (Hartree Fock) 
  NGX = 48; NGY = 48; NGZ = 48

 use parallel FFT for orbitals z direction half grid
 
 Radii for the augmentation spheres in the non-local exchange
 for species   1 augmentation radius   1.444 (default was   1.070)
       energy cutoff for augmentation   1800.0
 for species   2 augmentation radius   1.606 (default was   1.190)
       energy cutoff for augmentation   1800.0

 real space projection operators:
  total allocation   :       9041.60 KBytes
  max/ min on nodes  :        875.59        538.87

 Maximum index for augmentation-charges in exchange           89
  SETUP_FOCK is finished

 total amount of memory used by VASP MPI-rank0    54417. kBytes
=======================================================================

   base      :      30000. kBytes
   nonlr-proj:       3273. kBytes
   fftplans  :       6877. kBytes
   grid      :      11280. kBytes
   one-center:         46. kBytes
   HF        :        129. kBytes
   wavefun   :       2812. kBytes
 
     INWAV:  cpu time    0.0000: real time    0.0000
 initial charge density was supplied:
 charge density of overlapping atoms calculated
 number of electron     564.0000000 magnetization 
 keeping initial charge density in first step


--------------------------------------------------------------------------------------------------------


 Maximum index for non-local projection operator          293
 Maximum index for augmentation-charges          777 (set IRDMAX)


--------------------------------------------------------------------------------------------------------


 First call to EWALD:  gamma=   0.135
 Maximum number of real-space cells 3x 3x 3
 Maximum number of reciprocal cells 3x 3x 3

    FEWALD:  cpu time    0.0072: real time    0.0078


--------------------------------------- Iteration      1(   1)  ---------------------------------------


    POTLOK:  cpu time    0.1149: real time    0.1234
    SETDIJ:  cpu time    0.5649: real time    0.5797
     EDDAV:  cpu time    2.4016: real time    2.5183
       DOS:  cpu time    0.0102: real time    0.0102
    --------------------------------------------
      LOOP:  cpu time    3.0916: real time    3.2316

 eigenvalue-minimisations  :   704
 total energy-change (2. order) :-0.8802716E+05  (-0.2742859E+05)
 number of electron     564.0000000 magnetization 
 augmentation part      564.0000000 magnetization 

 Free energy of the ion-electron system (eV)
  ---------------------------------------------------
  alpha Z        PSCENC =      1482.04539224
  Ewald energy   TEWEN  =    -31769.32773388
  -Hartree energ DENC   =    -16454.02291316
  -exchange      EXHF   =         0.00000000
  -V(xc)+E(xc)   XCENC  =      -733.69077308
  PAW double counting   =     43745.08136476  -132352.96792733
  entropy T*S    EENTRO =        -0.03297211
  eigenvalues    EBANDS =       917.37722161
  atomic energy  EATOM  =     47138.37786884
  Solvation  Ediel_sol  =         0.00000000
  ---------------------------------------------------
  free energy    TOTEN  =    -88027.16047211 eV

  energy without entropy =   -88027.12750000  energy(sigma->0) =   -88027.14398605
  exchange ACFDT corr.  =         0.00000000  see jH, gK, PRB 81, 115126


--------------------------------------------------------------------------------------------------------




--------------------------------------- Iteration      1(   2)  ---------------------------------------


     EDDAV:  cpu time    2.2670: real time    2.3802
       DOS:  cpu time    0.0009: real time    0.0009
    --------------------------------------------
      LOOP:  cpu time    2.2679: real time    2.3811

 eigenvalue-minimisations  :   780
 total energy-change (2. order) :-0.4784523E+04  (-0.4645208E+04)
 number of electron     564.0000000 magnetization 
 augmentation part      564.0000000 magnetization 

 Free energy of the ion-electron system (eV)
  ---------------------------------------------------
  alpha Z        PSCENC =      1482.04539224
  Ewald energy   TEWEN  =    -31769.32773388
  -Hartree energ DENC   =    -16454.02291316
  -exchange      EXHF   =         0.00000000
  -V(xc)+E(xc)   XCENC  =      -733.69077308
  PAW double counting   =     43745.08136476  -132352.96792733
  entropy T*S    EENTRO =        -0.00000000
  eigenvalues    EBANDS =     -3867.17857275
  atomic energy  EATOM  =     47138.37786884
  Solvation  Ediel_sol  =         0.00000000
  ---------------------------------------------------
  free energy    TOTEN  =    -92811.68329436 eV

  energy without entropy =   -92811.68329436  energy(sigma->0) =   -92811.68329436
  exchange ACFDT corr.  =         0.00000000  see jH, gK, PRB 81, 115126


--------------------------------------------------------------------------------------------------------




--------------------------------------- Iteration      1(   3)  ---------------------------------------


     EDDAV:  cpu time    2.6053: real time    2.7071
       DOS:  cpu time    0.0042: real time    0.0044
    --------------------------------------------
      LOOP:  cpu time    2.6095: real time    2.7115

 eigenvalue-minimisations  :   764
 total energy-change (2. order) :-0.3984326E+03  (-0.3945168E+03)
 number of electron     564.0000000 magnetization 
 augmentation part      564.0000000 magnetization 

 Free energy of the ion-electron system (eV)
  ---------------------------------------------------
  alpha Z        PSCENC =      1482.04539224
  Ewald energy   TEWEN  =    -31769.32773388
  -Hartree energ DENC   =    -16454.02291316
  -exchange      EXHF   =         0.00000000
  -V(xc)+E(xc)   XCENC  =      -733.69077308
  PAW double counting   =     43745.08136476  -132352.96792733
  entropy T*S    EENTRO =        -0.00000000
  eigenvalues    EBANDS =     -4265.61112590
  atomic energy  EATOM  =     47138.37786884
  Solvation  Ediel_sol  =         0.00000000
  ---------------------------------------------------
  free energy    TOTEN  =    -93210.11584750 eV

  energy without entropy =   -93210.11584750  energy(sigma->0) =   -93210.11584750
  exchange ACFDT corr.  =         0.00000000  see jH, gK, PRB 81, 115126


--------------------------------------------------------------------------------------------------------




--------------------------------------- Iteration      1(   4)  ---------------------------------------


     EDDAV:  cpu time    2.3164: real time    2.3969
       DOS:  cpu time    0.0008: real time    0.0008
    --------------------------------------------
      LOOP:  cpu time    2.3171: real time    2.3976

 eigenvalue-minimisations  :   832
 total energy-change (2. order) :-0.1875331E+02  (-0.1869897E+02)
 number of electron     564.0000000 magnetization 
 augmentation part      564.0000000 magnetization 

 Free energy of the ion-electron system (eV)
  ---------------------------------------------------
  alpha Z        PSCENC =      1482.04539224
  Ewald energy   TEWEN  =    -31769.32773388
  -Hartree energ DENC   =    -16454.02291316
  -exchange      EXHF   =         0.00000000
  -V(xc)+E(xc)   XCENC  =      -733.69077308
  PAW double counting   =     43745.08136476  -132352.96792733
  entropy T*S    EENTRO =        -0.00000000
  eigenvalues    EBANDS =     -4284.36443464
  atomic energy  EATOM  =     47138.37786884
  Solvation  Ediel_sol  =         0.00000000
  ---------------------------------------------------
  free energy    TOTEN  =    -93228.86915625 eV

  energy without entropy =   -93228.86915625  energy(sigma->0) =   -93228.86915625
  exchange ACFDT corr.  =         0.00000000  see jH, gK, PRB 81, 115126


--------------------------------------------------------------------------------------------------------




--------------------------------------- Iteration      1(   5)  ---------------------------------------


    POTLOK:  cpu time    0.2441: real time    0.2468
    SETDIJ:  cpu time    0.9165: real time    0.9173
     EDDAV:  cpu time   19.0927: real time   19.4488
       DOS:  cpu time    0.0034: real time    0.0034
    CHARGE:  cpu time    0.0765: real time    0.0781
    MIXING:  cpu time    0.0021: real time    0.0021
    --------------------------------------------
      LOOP:  cpu time   20.3353: real time   20.6965

 eigenvalue-minimisations  :   680
 total energy-change (2. order) : 0.9303054E+05  (-0.7768338E+02)
 number of electron     564.7999918 magnetization 
 augmentation part      140.9557748 magnetization 

 Free energy of the ion-electron system (eV)
  ---------------------------------------------------
  alpha Z        PSCENC =      1482.04539224
  Ewald energy   TEWEN  =    -31769.32773388
  -Hartree energ DENC   =    -16454.02291316
  -exchange      EXHF   =      1589.97452857
  -V(xc)+E(xc)   XCENC  =      -599.17911910
  PAW double counting   =     43590.36926174   -41748.31759969
  entropy T*S    EENTRO =        -0.00000000
  eigenvalues    EBANDS =     -3428.24409565
  atomic energy  EATOM  =     47138.37786884
  Solvation  Ediel_sol  =         0.00000000
  ---------------------------------------------------
  free energy    TOTEN  =      -198.32441009 eV

  energy without entropy =     -198.32441009  energy(sigma->0) =     -198.32441009
  exchange ACFDT corr.  =         0.00000000  see jH, gK, PRB 81, 115126


--------------------------------------------------------------------------------------------------------




--------------------------------------- Iteration      1(   6)  ---------------------------------------


    POTLOK:  cpu time    0.2486: real time    0.2510
    SETDIJ:  cpu time    0.9193: real time    0.9197
     EDDAV:  cpu time   17.9152: real time   18.1552
       DOS:  cpu time    0.0033: real time    0.0033
    CHARGE:  cpu time    0.0763: real time    0.0764
    MIXING:  cpu time    0.0012: real time    0.0012
    --------------------------------------------
      LOOP:  cpu time   19.1639: real time   19.4067

 eigenvalue-minimisations  :   764
 total energy-change (2. order) :-0.4326909E+01  (-0.6323651E+01)
 number of electron     565.2799869 magnetization 
 augmentation part      141.5688696 magnetization 

 Free energy of the ion-electron system (eV)
  ---------------------------------------------------
  alpha Z        PSCENC =      1482.04539224
  Ewald energy   TEWEN  =    -31769.32773388
  -Hartree energ DENC   =    -16485.10233995
  -exchange      EXHF   =      1530.80543114
  -V(xc)+E(xc)   XCENC  =      -595.04266832
  PAW double counting   =     74110.61315362   -72245.86685008
  entropy T*S    EENTRO =        -0.00000000
  eigenvalues    EBANDS =     -3369.15357262
  atomic energy  EATOM  =     47138.37786884
  Solvation  Ediel_sol  =         0.00000000
  ---------------------------------------------------
  free energy    TOTEN  =      -202.65131901 eV

  energy without entropy =     -202.65131901  energy(sigma->0) =     -202.65131901
  exchange ACFDT corr.  =         0.00000000  see jH, gK, PRB 81, 115126


--------------------------------------------------------------------------------------------------------




--------------------------------------- Iteration      1(   7)  ---------------------------------------


    POTLOK:  cpu time    0.2518: real time    0.2547
    SETDIJ:  cpu time    0.9432: real time    0.9447
     EDDAV:  cpu time   18.5237: real time   18.8360
       DOS:  cpu time    0.0008: real time    0.0008
    CHARGE:  cpu time    0.0742: real time    0.0742
    MIXING:  cpu time    0.0013: real time    0.0013
    --------------------------------------------
      LOOP:  cpu time   19.7950: real time   20.1118

 eigenvalue-minimisations  :   780
 total energy-change (2. order) : 0.3147735E+00  (-0.1094671E+01)
 number of electron     565.5679840 magnetization 
 augmentation part      143.0857819 magnetization 

 Free energy of the ion-electron system (eV)
  ---------------------------------------------------
  alpha Z        PSCENC =      1482.04539224
  Ewald energy   TEWEN  =    -31769.32773388
  -Hartree energ DENC   =    -16407.12789328
  -exchange      EXHF   =      1511.44379069
  -V(xc)+E(xc)   XCENC  =      -593.95977385
  PAW double counting   =    100649.72888082   -98770.74785379
  entropy T*S    EENTRO =        -0.00000000
  eigenvalues    EBANDS =     -3442.76922334
  atomic energy  EATOM  =     47138.37786884
  Solvation  Ediel_sol  =         0.00000000
  ---------------------------------------------------
  free energy    TOTEN  =      -202.33654553 eV

  energy without entropy =     -202.33654553  energy(sigma->0) =     -202.33654553
  exchange ACFDT corr.  =         0.00000000  see jH, gK, PRB 81, 115126


--------------------------------------------------------------------------------------------------------




--------------------------------------- Iteration      1(   8)  ---------------------------------------


    POTLOK:  cpu time    0.2454: real time    0.2473
    SETDIJ:  cpu time    0.9149: real time    0.9156
     EDDAV:  cpu time   17.9736: real time   18.3181
       DOS:  cpu time    0.0009: real time    0.0009
    CHARGE:  cpu time    0.0724: real time    0.0724
    MIXING:  cpu time    0.0012: real time    0.0012
    --------------------------------------------
      LOOP:  cpu time   19.2083: real time   19.5556

 eigenvalue-minimisations  :   740
 total energy-change (2. order) :-0.1648555E+00  (-0.1890067E+00)
 number of electron     565.7407822 magnetization 
 augmentation part      143.7457811 magnetization 

 Free energy of the ion-electron system (eV)
  ---------------------------------------------------
  alpha Z        PSCENC =      1482.04539224
  Ewald energy   TEWEN  =    -31769.32773388
  -Hartree energ DENC   =    -16372.48552176
  -exchange      EXHF   =      1507.24089313
  -V(xc)+E(xc)   XCENC  =      -593.07258201
  PAW double counting   =    119504.11272443  -117620.57792146
  entropy T*S    EENTRO =        -0.00000000
  eigenvalues    EBANDS =     -3478.81452059
  atomic energy  EATOM  =     47138.37786884
  Solvation  Ediel_sol  =         0.00000000
  ---------------------------------------------------
  free energy    TOTEN  =      -202.50140106 eV

  energy without entropy =     -202.50140106  energy(sigma->0) =     -202.50140106
  exchange ACFDT corr.  =         0.00000000  see jH, gK, PRB 81, 115126


--------------------------------------------------------------------------------------------------------




--------------------------------------- Iteration      1(   9)  ---------------------------------------


    POTLOK:  cpu time    0.2482: real time    0.2510
    SETDIJ:  cpu time    0.9194: real time    0.9197
     EDDAV:  cpu time   17.5346: real time   17.8238
       DOS:  cpu time    0.0033: real time    0.0033
    CHARGE:  cpu time    0.0724: real time    0.0724
    MIXING:  cpu time    0.0012: real time    0.0012
    --------------------------------------------
      LOOP:  cpu time   18.7791: real time   19.0713

 eigenvalue-minimisations  :   780
 total energy-change (2. order) : 0.8153583E-01  (-0.1460340E-01)
 number of electron     565.8444611 magnetization 
 augmentation part      143.9063877 magnetization 

 Free energy of the ion-electron system (eV)
  ---------------------------------------------------
  alpha Z        PSCENC =      1482.04539224
  Ewald energy   TEWEN  =    -31769.32773388
  -Hartree energ DENC   =    -16363.89705008
  -exchange      EXHF   =      1506.59498949
  -V(xc)+E(xc)   XCENC  =      -592.31366406
  PAW double counting   =    132621.22317840  -130736.63330536
  entropy T*S    EENTRO =        -0.00000000
  eigenvalues    EBANDS =     -3488.48954082
  atomic energy  EATOM  =     47138.37786884
  Solvation  Ediel_sol  =         0.00000000
  ---------------------------------------------------
  free energy    TOTEN  =      -202.41986523 eV

  energy without entropy =     -202.41986523  energy(sigma->0) =     -202.41986523
  exchange ACFDT corr.  =         0.00000000  see jH, gK, PRB 81, 115126


--------------------------------------------------------------------------------------------------------




--------------------------------------- Iteration      1(  10)  ---------------------------------------


    POTLOK:  cpu time    0.2497: real time    0.2504
    SETDIJ:  cpu time    0.9075: real time    0.9213
     EDDAV:  cpu time   19.0690: real time   19.4559
       DOS:  cpu time    0.0110: real time    0.0110
    CHARGE:  cpu time    0.0775: real time    0.0776
    MIXING:  cpu time    0.0029: real time    0.0029
    --------------------------------------------
      LOOP:  cpu time   20.3176: real time   20.7191

 eigenvalue-minimisations  :   740
 total energy-change (2. order) : 0.6204666E-01  (-0.3801965E-02)
 number of electron     565.9066685 magnetization 
 augmentation part      143.8873044 magnetization 

 Free energy of the ion-electron system (eV)
  ---------------------------------------------------
  alpha Z        PSCENC =      1482.04539224
  Ewald energy   TEWEN  =    -31769.32773388
  -Hartree energ DENC   =    -16361.12671481
  -exchange      EXHF   =      1506.65558483
  -V(xc)+E(xc)   XCENC  =      -591.78915631
  PAW double counting   =    140845.45777346  -138960.51445284
  entropy T*S    EENTRO =        -0.00000000
  eigenvalues    EBANDS =     -3492.13638010
  atomic energy  EATOM  =     47138.37786884
  Solvation  Ediel_sol  =         0.00000000
  ---------------------------------------------------
  free energy    TOTEN  =      -202.35781857 eV

  energy without entropy =     -202.35781857  energy(sigma->0) =     -202.35781857
  exchange ACFDT corr.  =         0.00000000  see jH, gK, PRB 81, 115126


--------------------------------------------------------------------------------------------------------




--------------------------------------- Iteration      1(  11)  ---------------------------------------


    POTLOK:  cpu time    0.2445: real time    0.2468
    SETDIJ:  cpu time    0.9189: real time    0.9194
     EDDAV:  cpu time   18.1683: real time   18.2542
       DOS:  cpu time    0.0035: real time    0.0035
    CHARGE:  cpu time    0.0738: real time    0.0738
    MIXING:  cpu time    0.0013: real time    0.0013
    --------------------------------------------
      LOOP:  cpu time   19.4102: real time   19.4990

 eigenvalue-minimisations  :   748
 total energy-change (2. order) : 0.1779245E-01  (-0.2688921E-02)
 number of electron     565.9439929 magnetization 
 augmentation part      143.8482999 magnetization 

 Free energy of the ion-electron system (eV)
  ---------------------------------------------------
  alpha Z        PSCENC =      1482.04539224
  Ewald energy   TEWEN  =    -31769.32773388
  -Hartree energ DENC   =    -16359.38730728
  -exchange      EXHF   =      1506.86058347
  -V(xc)+E(xc)   XCENC  =      -591.46676020
  PAW double counting   =    145825.04651994  -143939.82058999
  entropy T*S    EENTRO =        -0.00000000
  eigenvalues    EBANDS =     -3494.66799927
  atomic energy  EATOM  =     47138.37786884
  Solvation  Ediel_sol  =         0.00000000
  ---------------------------------------------------
  free energy    TOTEN  =      -202.34002612 eV

  energy without entropy =     -202.34002612  energy(sigma->0) =     -202.34002612
  exchange ACFDT corr.  =         0.00000000  see jH, gK, PRB 81, 115126


--------------------------------------------------------------------------------------------------------




--------------------------------------- Iteration      1(  12)  ---------------------------------------


    POTLOK:  cpu time    0.2529: real time    0.2610
    SETDIJ:  cpu time    0.9190: real time    0.9193
     EDDAV:  cpu time   19.0169: real time   19.4582
       DOS:  cpu time    0.0029: real time    0.0030
    CHARGE:  cpu time    0.0751: real time    0.0755
    MIXING:  cpu time    0.0012: real time    0.0012
    --------------------------------------------
      LOOP:  cpu time   20.2682: real time   20.7182

 eigenvalue-minimisations  :   828
 total energy-change (2. order) : 0.4117596E-02  (-0.8356623E-03)
 number of electron     565.9663876 magnetization 
 augmentation part      143.8335392 magnetization 

 Free energy of the ion-electron system (eV)
  ---------------------------------------------------
  alpha Z        PSCENC =      1482.04539224
  Ewald energy   TEWEN  =    -31769.32773388
  -Hartree energ DENC   =    -16358.30770240
  -exchange      EXHF   =      1507.04935517
  -V(xc)+E(xc)   XCENC  =      -591.27579398
  PAW double counting   =    148800.71524044  -146915.25600529
  entropy T*S    EENTRO =        -0.00000000
  eigenvalues    EBANDS =     -3496.35652968
  atomic energy  EATOM  =     47138.37786884
  Solvation  Ediel_sol  =         0.00000000
  ---------------------------------------------------
  free energy    TOTEN  =      -202.33590853 eV

  energy without entropy =     -202.33590853  energy(sigma->0) =     -202.33590853
  exchange ACFDT corr.  =         0.00000000  see jH, gK, PRB 81, 115126


--------------------------------------------------------------------------------------------------------




--------------------------------------- Iteration      1(  13)  ---------------------------------------


    POTLOK:  cpu time    0.2646: real time    0.2676
    SETDIJ:  cpu time    0.9157: real time    0.9214
     EDDAV:  cpu time   17.8445: real time   18.0113
       DOS:  cpu time    0.0008: real time    0.0008
    CHARGE:  cpu time    0.0730: real time    0.0731
    MIXING:  cpu time    0.0014: real time    0.0013
    --------------------------------------------
      LOOP:  cpu time   19.1000: real time   19.2755

 eigenvalue-minimisations  :   732
 total energy-change (2. order) : 0.1231771E-02  (-0.2131563E-03)
 number of electron     565.9798243 magnetization 
 augmentation part      143.8320656 magnetization 

 Free energy of the ion-electron system (eV)
  ---------------------------------------------------
  alpha Z        PSCENC =      1482.04539224
  Ewald energy   TEWEN  =    -31769.32773388
  -Hartree energ DENC   =    -16357.75290397
  -exchange      EXHF   =      1507.14536899
  -V(xc)+E(xc)   XCENC  =      -591.16134812
  PAW double counting   =    150545.67621221  -148660.05303349
  entropy T*S    EENTRO =        -0.00000000
  eigenvalues    EBANDS =     -3497.28449958
  atomic energy  EATOM  =     47138.37786884
  Solvation  Ediel_sol  =         0.00000000
  ---------------------------------------------------
  free energy    TOTEN  =      -202.33467676 eV

  energy without entropy =     -202.33467676  energy(sigma->0) =     -202.33467676
  exchange ACFDT corr.  =         0.00000000  see jH, gK, PRB 81, 115126


--------------------------------------------------------------------------------------------------------




--------------------------------------- Iteration      1(  14)  ---------------------------------------


    POTLOK:  cpu time    0.2439: real time    0.2457
    SETDIJ:  cpu time    0.9208: real time    0.9211
     EDDAV:  cpu time   19.2402: real time   19.6052
       DOS:  cpu time    0.0042: real time    0.0042
    CHARGE:  cpu time    0.0781: real time    0.0781
    MIXING:  cpu time    0.0017: real time    0.0017
    --------------------------------------------
      LOOP:  cpu time   20.4888: real time   20.8559

 eigenvalue-minimisations  :   740
 total energy-change (2. order) : 0.3268815E-03  (-0.9128415E-04)
 number of electron     565.9878864 magnetization 
 augmentation part      143.8323685 magnetization 

 Free energy of the ion-electron system (eV)
  ---------------------------------------------------
  alpha Z        PSCENC =      1482.04539224
  Ewald energy   TEWEN  =    -31769.32773388
  -Hartree energ DENC   =    -16357.50561363
  -exchange      EXHF   =      1507.17478836
  -V(xc)+E(xc)   XCENC  =      -591.09185645
  PAW double counting   =    151566.25895552  -149680.53731712
  entropy T*S    EENTRO =        -0.00000000
  eigenvalues    EBANDS =     -3497.72883377
  atomic energy  EATOM  =     47138.37786884
  Solvation  Ediel_sol  =         0.00000000
  ---------------------------------------------------
  free energy    TOTEN  =      -202.33434987 eV

  energy without entropy =     -202.33434987  energy(sigma->0) =     -202.33434987
  exchange ACFDT corr.  =         0.00000000  see jH, gK, PRB 81, 115126


--------------------------------------------------------------------------------------------------------




--------------------------------------- Iteration      1(  15)  ---------------------------------------


    POTLOK:  cpu time    0.2562: real time    0.2593
    SETDIJ:  cpu time    0.9222: real time    0.9227
     EDDAV:  cpu time   18.0229: real time   18.2829
       DOS:  cpu time    0.0037: real time    0.0037
    CHARGE:  cpu time    0.0724: real time    0.0724
    MIXING:  cpu time    0.0012: real time    0.0012
    --------------------------------------------
      LOOP:  cpu time   19.2786: real time   19.5423

 eigenvalue-minimisations  :   740
 total energy-change (2. order) : 0.7122952E-05  (-0.4402273E-04)
 number of electron     565.9927237 magnetization 
 augmentation part      143.8329101 magnetization 

 Free energy of the ion-electron system (eV)
  ---------------------------------------------------
  alpha Z        PSCENC =      1482.04539224
  Ewald energy   TEWEN  =    -31769.32773388
  -Hartree energ DENC   =    -16357.41222323
  -exchange      EXHF   =      1507.17535554
  -V(xc)+E(xc)   XCENC  =      -591.05050308
  PAW double counting   =    152163.10372716  -150277.33077250
  entropy T*S    EENTRO =        -0.00000000
  eigenvalues    EBANDS =     -3497.91545385
  atomic energy  EATOM  =     47138.37786884
  Solvation  Ediel_sol  =         0.00000000
  ---------------------------------------------------
  free energy    TOTEN  =      -202.33434275 eV

  energy without entropy =     -202.33434275  energy(sigma->0) =     -202.33434275
  exchange ACFDT corr.  =         0.00000000  see jH, gK, PRB 81, 115126


--------------------------------------------------------------------------------------------------------




--------------------------------------- Iteration      1(  16)  ---------------------------------------


    POTLOK:  cpu time    0.2384: real time    0.2518
    SETDIJ:  cpu time    0.9162: real time    0.9216
     EDDAV:  cpu time   18.7026: real time   18.9986
       DOS:  cpu time    0.0011: real time    0.0010
    CHARGE:  cpu time    0.0769: real time    0.0770
    MIXING:  cpu time    0.0015: real time    0.0015
    --------------------------------------------
      LOOP:  cpu time   19.9366: real time   20.2515

 eigenvalue-minimisations  :   732
 total energy-change (2. order) :-0.5837182E-04  (-0.1854674E-04)
 number of electron     565.9956260 magnetization 
 augmentation part      143.8332842 magnetization 

 Free energy of the ion-electron system (eV)
  ---------------------------------------------------
  alpha Z        PSCENC =      1482.04539224
  Ewald energy   TEWEN  =    -31769.32773388
  -Hartree energ DENC   =    -16357.37920071
  -exchange      EXHF   =      1507.16716709
  -V(xc)+E(xc)   XCENC  =      -591.02635632
  PAW double counting   =    152515.81392068  -150630.01780054
  entropy T*S    EENTRO =        -0.00000000
  eigenvalues    EBANDS =     -3497.98765853
  atomic energy  EATOM  =     47138.37786884
  Solvation  Ediel_sol  =         0.00000000
  ---------------------------------------------------
  free energy    TOTEN  =      -202.33440112 eV

  energy without entropy =     -202.33440112  energy(sigma->0) =     -202.33440112
  exchange ACFDT corr.  =         0.00000000  see jH, gK, PRB 81, 115126


--------------------------------------------------------------------------------------------------------




--------------------------------------- Iteration      1(  17)  ---------------------------------------


    POTLOK:  cpu time    0.2565: real time    0.2584
    SETDIJ:  cpu time    0.9228: real time    0.9232
     EDDAV:  cpu time   18.6881: real time   18.9706
       DOS:  cpu time    0.0008: real time    0.0008
    CHARGE:  cpu time    0.0738: real time    0.0739
    MIXING:  cpu time    0.0015: real time    0.0015
    --------------------------------------------
      LOOP:  cpu time   19.9436: real time   20.2284

 eigenvalue-minimisations  :   652
 total energy-change (2. order) :-0.4878042E-04  (-0.7710070E-05)
 number of electron     565.9973674 magnetization 
 augmentation part      143.8333981 magnetization 

 Free energy of the ion-electron system (eV)
  ---------------------------------------------------
  alpha Z        PSCENC =      1482.04539224
  Ewald energy   TEWEN  =    -31769.32773388
  -Hartree energ DENC   =    -16357.36660243
  -exchange      EXHF   =      1507.16065008
  -V(xc)+E(xc)   XCENC  =      -591.01229021
  PAW double counting   =    152726.51556898  -150840.71034826
  entropy T*S    EENTRO =        -0.00000000
  eigenvalues    EBANDS =     -3498.01695526
  atomic energy  EATOM  =     47138.37786884
  Solvation  Ediel_sol  =         0.00000000
  ---------------------------------------------------
  free energy    TOTEN  =      -202.33444990 eV

  energy without entropy =     -202.33444990  energy(sigma->0) =     -202.33444990
  exchange ACFDT corr.  =         0.00000000  see jH, gK, PRB 81, 115126


--------------------------------------------------------------------------------------------------------




--------------------------------------- Iteration      1(  18)  ---------------------------------------


    POTLOK:  cpu time    0.2411: real time    0.2475
    SETDIJ:  cpu time    0.9017: real time    0.9170
     EDDAV:  cpu time   18.0867: real time   18.4610
       DOS:  cpu time    0.0008: real time    0.0008
    CHARGE:  cpu time    0.0716: real time    0.0718
    MIXING:  cpu time    0.0012: real time    0.0012
    --------------------------------------------
      LOOP:  cpu time   19.3031: real time   19.6993

 eigenvalue-minimisations  :   556
 total energy-change (2. order) :-0.3122362E-04  (-0.3656924E-05)
 number of electron     565.9984123 magnetization 
 augmentation part      143.8335325 magnetization 

 Free energy of the ion-electron system (eV)
  ---------------------------------------------------
  alpha Z        PSCENC =      1482.04539224
  Ewald energy   TEWEN  =    -31769.32773388
  -Hartree energ DENC   =    -16357.35882021
  -exchange      EXHF   =      1507.15711556
  -V(xc)+E(xc)   XCENC  =      -591.00408142
  PAW double counting   =    152852.71668903  -150966.90856654
  entropy T*S    EENTRO =        -0.00000000
  eigenvalues    EBANDS =     -3498.03234474
  atomic energy  EATOM  =     47138.37786884
  Solvation  Ediel_sol  =         0.00000000
  ---------------------------------------------------
  free energy    TOTEN  =      -202.33448113 eV

  energy without entropy =     -202.33448113  energy(sigma->0) =     -202.33448113
  exchange ACFDT corr.  =         0.00000000  see jH, gK, PRB 81, 115126


--------------------------------------------------------------------------------------------------------




--------------------------------------- Iteration      1(  19)  ---------------------------------------


    POTLOK:  cpu time    0.2448: real time    0.2473
    SETDIJ:  cpu time    0.9160: real time    0.9162
     EDDAV:  cpu time   18.1843: real time   18.4203
       DOS:  cpu time    0.0082: real time    0.0082
    CHARGE:  cpu time    0.0767: real time    0.0769
    MIXING:  cpu time    0.0019: real time    0.0019
    --------------------------------------------
      LOOP:  cpu time   19.4318: real time   19.6709

 eigenvalue-minimisations  :   556
 total energy-change (2. order) :-0.1860344E-04  (-0.1921980E-05)
 number of electron     565.9990392 magnetization 
 augmentation part      143.8335206 magnetization 

 Free energy of the ion-electron system (eV)
  ---------------------------------------------------
  alpha Z        PSCENC =      1482.04539224
  Ewald energy   TEWEN  =    -31769.32773388
  -Hartree energ DENC   =    -16357.35646381
  -exchange      EXHF   =      1507.15574324
  -V(xc)+E(xc)   XCENC  =      -590.99916879
  PAW double counting   =    152927.87107492  -151042.06273270
  entropy T*S    EENTRO =        -0.00000000
  eigenvalues    EBANDS =     -3498.03847980
  atomic energy  EATOM  =     47138.37786884
  Solvation  Ediel_sol  =         0.00000000
  ---------------------------------------------------
  free energy    TOTEN  =      -202.33449973 eV

  energy without entropy =     -202.33449973  energy(sigma->0) =     -202.33449973
  exchange ACFDT corr.  =         0.00000000  see jH, gK, PRB 81, 115126


--------------------------------------------------------------------------------------------------------




--------------------------------------- Iteration      1(  20)  ---------------------------------------


    POTLOK:  cpu time    0.2548: real time    0.2596
    SETDIJ:  cpu time    0.9169: real time    0.9198
     EDDAV:  cpu time   17.6189: real time   17.9015
       DOS:  cpu time    0.0013: real time    0.0013
    CHARGE:  cpu time    0.0742: real time    0.0742
    MIXING:  cpu time    0.0014: real time    0.0014
    --------------------------------------------
      LOOP:  cpu time   18.8674: real time   19.1577

 eigenvalue-minimisations  :   516
 total energy-change (2. order) :-0.1063079E-04  (-0.1000927E-05)
 number of electron     565.9994153 magnetization 
 augmentation part      143.8334580 magnetization 

 Free energy of the ion-electron system (eV)
  ---------------------------------------------------
  alpha Z        PSCENC =      1482.04539224
  Ewald energy   TEWEN  =    -31769.32773388
  -Hartree energ DENC   =    -16357.35750633
  -exchange      EXHF   =      1507.15521512
  -V(xc)+E(xc)   XCENC  =      -590.99621620
  PAW double counting   =    152972.87461754  -151087.06708052
  entropy T*S    EENTRO =        -0.00000000
  eigenvalues    EBANDS =     -3498.03906718
  atomic energy  EATOM  =     47138.37786884
  Solvation  Ediel_sol  =         0.00000000
  ---------------------------------------------------
  free energy    TOTEN  =      -202.33451036 eV

  energy without entropy =     -202.33451036  energy(sigma->0) =     -202.33451036
  exchange ACFDT corr.  =         0.00000000  see jH, gK, PRB 81, 115126


--------------------------------------------------------------------------------------------------------




--------------------------------------- Iteration      1(  21)  ---------------------------------------


    POTLOK:  cpu time    0.2478: real time    0.2505
    SETDIJ:  cpu time    0.9129: real time    0.9249
     EDDAV:  cpu time   17.7610: real time   18.1105
       DOS:  cpu time    0.0008: real time    0.0008
    CHARGE:  cpu time    0.0731: real time    0.0732
    MIXING:  cpu time    0.0012: real time    0.0012
    --------------------------------------------
      LOOP:  cpu time   18.9969: real time   19.3612

 eigenvalue-minimisations  :   460
 total energy-change (2. order) :-0.5842776E-05  (-0.5310485E-06)
 number of electron     565.9996410 magnetization 
 augmentation part      143.8334084 magnetization 

 Free energy of the ion-electron system (eV)
  ---------------------------------------------------
  alpha Z        PSCENC =      1482.04539224
  Ewald energy   TEWEN  =    -31769.32773388
  -Hartree energ DENC   =    -16357.35975403
  -exchange      EXHF   =      1507.15492797
  -V(xc)+E(xc)   XCENC  =      -590.99444062
  PAW double counting   =    152999.94616747  -151114.13971067
  entropy T*S    EENTRO =        -0.00000000
  eigenvalues    EBANDS =     -3498.03723352
  atomic energy  EATOM  =     47138.37786884
  Solvation  Ediel_sol  =         0.00000000
  ---------------------------------------------------
  free energy    TOTEN  =      -202.33451620 eV

  energy without entropy =     -202.33451620  energy(sigma->0) =     -202.33451620
  exchange ACFDT corr.  =         0.00000000  see jH, gK, PRB 81, 115126


--------------------------------------------------------------------------------------------------------




--------------------------------------- Iteration      1(  22)  ---------------------------------------


    POTLOK:  cpu time    0.2451: real time    0.2460
    SETDIJ:  cpu time    0.9178: real time    0.9182
     EDDAV:  cpu time   17.2497: real time   17.3457
       DOS:  cpu time    0.0008: real time    0.0008
    --------------------------------------------
      LOOP:  cpu time   18.4135: real time   18.5107

 eigenvalue-minimisations  :   436
 total energy-change (2. order) :-0.3149202E-05  (-0.3024933E-06)
 number of electron     565.9996410 magnetization 
 augmentation part      143.8334084 magnetization 

 Free energy of the ion-electron system (eV)
  ---------------------------------------------------
  alpha Z        PSCENC =      1482.04539224
  Ewald energy   TEWEN  =    -31769.32773388
  -Hartree energ DENC   =    -16357.36221973
  -exchange      EXHF   =      1507.15472792
  -V(xc)+E(xc)   XCENC  =      -590.99336661
  PAW double counting   =    153016.45541765  -151130.65003729
  entropy T*S    EENTRO =        -0.00000000
  eigenvalues    EBANDS =     -3498.03456850
  atomic energy  EATOM  =     47138.37786884
  Solvation  Ediel_sol  =         0.00000000
  ---------------------------------------------------
  free energy    TOTEN  =      -202.33451935 eV

  energy without entropy =     -202.33451935  energy(sigma->0) =     -202.33451935
  exchange ACFDT corr.  =         0.00000000  see jH, gK, PRB 81, 115126


--------------------------------------------------------------------------------------------------------




 average (electrostatic) potential at core
  the test charge radii are     1.0698  1.1897
  (the norm of the test charge is              1.0000)
       1 -30.6111       2 -30.6111       3 -30.5522       4 -30.6111       5 -30.5522
       6 -30.5522       7 -30.7436       8 -30.3543       9 -30.3543      10 -30.3543
      11 -30.3543      12 -30.6326      13 -30.6326      14 -30.6326      15 -30.6326
      16 -30.3543      17 -30.3543      18 -30.6326      19 -30.6326      20 -30.3543
      21 -30.3543      22 -30.6326      23 -30.6326      24 -30.3543      25 -30.6326
      26 -30.3543      27 -30.6326      28 -30.3543      29 -30.6326      30 -30.3543
      31 -30.6326      32 -86.3276      33 -85.3662      34 -86.3323      35 -86.3276
      36 -86.3323      37 -86.3276      38 -86.4760      39 -86.3323      40 -86.3276
      41 -86.3323      42 -85.3662      43 -86.3276      44 -86.3323      45 -86.4760
      46 -86.3276      47 -86.3323      48 -86.3276      49 -86.3323      50 -86.3323
      51 -86.4760      52 -85.3662      53 -86.3276      54 -86.3276      55 -86.3323
      56 -86.4760      57 -86.3323      58 -86.3323      59 -86.3276      60 -86.3323
      61 -86.3276      62 -86.3276      63 -85.3662
 
 
 
 E-fermi :   1.7997     XC(G=0):  -6.4877     alpha+bet : -7.1617


 k-point     1 :       0.0000    0.0000    0.0000
  band No.  band energies     occupation 
      1     -11.1184      2.00000
      2     -10.9162      2.00000
      3     -10.9162      2.00000
      4     -10.9161      2.00000
      5     -10.9022      2.00000
      6     -10.8654      2.00000
      7     -10.8654      2.00000
      8     -10.8108      2.00000
      9     -10.8108      2.00000
     10     -10.8108      2.00000
     11     -10.7788      2.00000
     12     -10.7608      2.00000
     13     -10.7608      2.00000
     14     -10.7608      2.00000
     15     -10.7602      2.00000
     16     -10.7602      2.00000
     17     -10.7602      2.00000
     18     -10.7562      2.00000
     19     -10.7562      2.00000
     20     -10.7142      2.00000
     21     -10.7142      2.00000
     22     -10.7142      2.00000
     23     -10.6825      2.00000
     24     -10.6825      2.00000
     25     -10.6825      2.00000
[...]
     0.000000000  0.000000000 13.086768000     0.000000000  0.000000000  0.076413061

  length of vectors
    13.086768000 13.086768000 13.086768000     0.076413061  0.076413061  0.076413061


 FORCES acting on ions
    electron-ion (+dipol)            ewald-force                    non-local-force                 convergence-correction
 -----------------------------------------------------------------------------------------------
   -.351E+00 0.827E-01 -.128E+00   0.357E+00 -.842E-01 0.128E+00   -.159E-01 0.103E-01 0.757E-02   -.999E-03 -.532E-03 -.631E-03
   -.340E+00 -.913E-01 0.159E+00   0.341E+00 0.879E-01 -.167E+00   -.157E-01 0.997E-02 0.132E-01   0.649E-03 0.224E-02 0.446E-04
   -.187E+00 -.220E-01 -.361E+00   0.183E+00 0.243E-01 0.363E+00   -.276E-02 0.133E-02 -.259E-01   0.621E-03 0.530E-03 -.273E-02
   0.138E+00 0.210E+00 0.825E-01   -.135E+00 -.211E+00 -.854E-01   -.877E-02 0.485E-02 0.868E-02   -.144E-02 -.113E-02 -.681E-03
   0.407E+00 -.279E-01 0.307E-01   -.409E+00 0.216E-01 -.324E-01   0.311E-01 0.103E-01 0.802E-02   0.167E-02 -.167E-02 0.205E-02
   0.351E+00 -.402E+00 -.117E+00   -.349E+00 0.407E+00 0.128E+00   0.619E-02 -.301E-01 -.339E-01   -.142E-02 -.138E-02 -.175E-02
   -.373E-01 0.578E-01 0.532E-01   0.362E-01 -.593E-01 -.510E-01   -.861E-02 0.351E-02 0.356E-02   0.512E-02 0.138E-03 -.110E-02
   -.157E+02 0.260E+02 0.257E+02   0.145E+02 -.272E+02 -.270E+02   0.106E+01 0.118E+01 0.118E+01   -.142E-03 -.176E-02 0.112E-02
   0.153E+02 0.255E+02 -.256E+02   -.141E+02 -.268E+02 0.268E+02   -.106E+01 0.118E+01 -.119E+01   -.940E-03 -.162E-02 -.951E-03
   0.153E+02 -.259E+02 0.260E+02   -.142E+02 0.272E+02 -.272E+02   -.107E+01 -.118E+01 0.118E+01   -.493E-03 0.150E-02 -.392E-02
   -.157E+02 -.255E+02 -.256E+02   0.146E+02 0.267E+02 0.269E+02   0.106E+01 -.119E+01 -.118E+01   -.394E-03 -.876E-03 -.213E-03
   0.737E+01 0.335E+01 0.317E+01   -.747E+01 -.354E+01 -.336E+01   0.793E-01 0.145E+00 0.148E+00   0.544E-03 -.111E-02 -.272E-03
   -.708E+01 0.338E+01 -.315E+01   0.717E+01 -.358E+01 0.333E+01   -.886E-01 0.141E+00 -.131E+00   -.350E-02 -.336E-02 0.935E-03
   -.692E+01 -.329E+01 0.361E+01   0.701E+01 0.348E+01 -.379E+01   -.687E-01 -.145E+00 0.136E+00   -.177E-02 0.464E-03 -.931E-03
   0.735E+01 -.338E+01 -.333E+01   -.745E+01 0.358E+01 0.353E+01   0.782E-01 -.149E+00 -.153E+00   0.103E-02 -.126E-02 0.117E-02
   0.255E+02 -.152E+02 0.254E+02   -.268E+02 0.141E+02 -.267E+02   0.119E+01 0.107E+01 0.119E+01   -.234E-05 -.999E-03 -.446E-03
   0.260E+02 0.159E+02 -.259E+02   -.273E+02 -.148E+02 0.272E+02   0.119E+01 -.106E+01 -.119E+01   -.210E-02 -.668E-03 0.320E-02
   0.330E+01 0.708E+01 0.351E+01   -.349E+01 -.717E+01 -.371E+01   0.138E+00 0.642E-01 0.154E+00   -.463E-03 0.101E-02 -.457E-03
   0.349E+01 -.733E+01 -.343E+01   -.369E+01 0.743E+01 0.362E+01   0.154E+00 -.823E-01 -.143E+00   0.101E-02 0.683E-03 -.641E-03
   -.258E+02 0.156E+02 0.258E+02   0.270E+02 -.145E+02 -.271E+02   -.118E+01 -.106E+01 0.118E+01   0.214E-02 0.227E-02 -.220E-02
   -.260E+02 -.155E+02 -.260E+02   0.273E+02 0.144E+02 0.272E+02   -.117E+01 0.106E+01 -.119E+01   0.149E-02 0.148E-02 0.294E-02
   -.306E+01 -.730E+01 0.342E+01   0.325E+01 0.740E+01 -.361E+01   -.147E+00 -.711E-01 0.141E+00   -.872E-03 0.113E-02 0.584E-03
   -.358E+01 0.709E+01 -.323E+01   0.377E+01 -.719E+01 0.342E+01   -.144E+00 0.687E-01 -.147E+00   0.617E-03 0.401E-03 -.163E-02
   0.259E+02 0.259E+02 -.155E+02   -.272E+02 -.271E+02 0.144E+02   0.119E+01 0.116E+01 0.106E+01   -.240E-03 -.204E-02 0.493E-03
   0.322E+01 0.357E+01 0.705E+01   -.342E+01 -.376E+01 -.714E+01   0.152E+00 0.137E+00 0.717E-01   0.164E-02 0.161E-02 0.167E-02
   0.258E+02 -.256E+02 0.155E+02   -.270E+02 0.269E+02 -.144E+02   0.118E+01 -.119E+01 -.107E+01   -.401E-03 0.617E-03 0.106E-02
   0.347E+01 -.339E+01 -.721E+01   -.366E+01 0.360E+01 0.731E+01   0.150E+00 -.160E+00 -.758E-01   0.596E-03 0.365E-04 0.149E-02
   -.260E+02 0.258E+02 0.158E+02   0.272E+02 -.270E+02 -.147E+02   -.119E+01 0.119E+01 -.106E+01   -.175E-02 -.848E-03 0.629E-03
   -.338E+01 0.307E+01 -.733E+01   0.357E+01 -.327E+01 0.742E+01   -.139E+00 0.149E+00 -.699E-01   -.181E-03 0.835E-03 0.797E-03
   -.257E+02 -.257E+02 -.153E+02   0.270E+02 0.270E+02 0.142E+02   -.118E+01 -.118E+01 0.106E+01   -.960E-04 0.404E-02 0.266E-03
   -.329E+01 -.338E+01 0.712E+01   0.348E+01 0.356E+01 -.721E+01   -.145E+00 -.132E+00 0.706E-01   0.915E-03 0.191E-02 0.245E-02
   -.231E+00 0.172E-01 0.157E+02   0.167E+00 -.918E-01 -.163E+02   0.563E-01 0.654E-01 0.635E+00   -.113E-02 -.530E-03 -.429E-03
   0.674E+02 0.674E+02 -.671E+02   -.717E+02 -.718E+02 0.714E+02   0.401E+01 0.400E+01 -.398E+01   0.203E-04 -.132E-02 -.276E-03
   0.455E+01 -.143E+01 0.113E+01   -.482E+01 0.165E+01 -.134E+01   0.246E+00 -.204E+00 0.196E+00   -.277E-03 -.735E-03 0.701E-03
   -.144E+00 -.159E+02 0.985E-01   0.724E-01 0.166E+02 -.288E-01   0.702E-01 -.648E+00 -.665E-01   -.217E-03 0.106E-02 0.862E-03
   -.113E+01 0.462E+01 0.134E+01   0.135E+01 -.488E+01 -.156E+01   -.204E+00 0.238E+00 0.205E+00   0.348E-03 -.209E-03 -.117E-02
   -.156E+02 -.130E+00 0.177E+00   0.163E+02 0.672E-01 -.104E+00   -.634E+00 0.549E-01 -.698E-01   0.106E-03 -.774E-03 -.895E-04
   -.167E+01 -.173E+01 0.166E+01   0.178E+01 0.185E+01 -.176E+01   -.963E-01 -.110E+00 0.940E-01   -.364E-03 -.164E-02 -.995E-04
   -.117E+01 -.144E+01 -.493E+01   0.138E+01 0.166E+01 0.521E+01   -.193E+00 -.203E+00 -.256E+00   -.572E-03 0.153E-02 -.994E-03
   -.230E+00 0.154E+02 -.425E-01   0.161E+00 -.161E+02 -.275E-01   0.670E-01 0.623E+00 0.564E-01   0.778E-04 0.317E-03 0.266E-03
   0.496E+01 0.946E+00 -.118E+01   -.524E+01 -.113E+01 0.138E+01   0.258E+00 0.167E+00 -.185E+00   0.613E-03 0.746E-04 -.521E-03
   0.671E+02 -.672E+02 0.675E+02   -.714E+02 0.716E+02 -.718E+02   0.398E+01 -.400E+01 0.400E+01   0.236E-04 -.127E-02 -.527E-04
   -.137E+00 0.100E+00 -.158E+02   0.683E-01 -.234E-01 0.165E+02   0.635E-01 -.659E-01 -.648E+00   -.979E-04 -.288E-03 0.611E-04
   -.108E+01 0.100E+01 0.457E+01   0.129E+01 -.120E+01 -.483E+01   -.193E+00 0.192E+00 0.244E+00   -.101E-04 -.101E-02 -.554E-03
   -.165E+01 0.177E+01 -.173E+01   0.175E+01 -.187E+01 0.185E+01   -.947E-01 0.897E-01 -.107E+00   0.979E-03 0.998E-03 -.207E-03
   -.155E+02 0.216E+00 -.124E+00   0.162E+02 -.145E+00 0.614E-01   -.629E+00 -.701E-01 0.554E-01   0.582E-03 0.180E-03 -.126E-02
   -.114E+01 -.460E+01 -.148E+01   0.135E+01 0.487E+01 0.171E+01   -.196E+00 -.251E+00 -.211E+00   -.611E-03 0.186E-03 0.146E-03
   0.158E+02 -.110E+00 -.223E+00   -.165E+02 0.411E-01 0.162E+00   0.650E+00 0.633E-01 0.581E-01   0.105E-02 -.968E-03 -.497E-03
   0.129E+01 0.485E+01 -.824E+00   -.150E+01 -.513E+01 0.101E+01   0.194E+00 0.258E+00 -.185E+00   0.634E-03 0.130E-02 0.566E-03
   0.990E+00 -.109E+01 0.506E+01   -.117E+01 0.128E+01 -.534E+01   0.172E+00 -.176E+00 0.259E+00   -.104E-02 0.611E-03 -.238E-03
   0.187E+01 -.180E+01 -.181E+01   -.199E+01 0.191E+01 0.192E+01   0.105E+00 -.976E-01 -.102E+00   -.120E-02 0.189E-02 0.126E-02
   -.674E+02 0.673E+02 0.674E+02   0.717E+02 -.716E+02 -.717E+02   -.399E+01 0.400E+01 0.400E+01   -.208E-02 -.865E-03 0.125E-02
   0.653E-01 -.198E+00 -.158E+02   0.798E-03 0.135E+00 0.165E+02   -.594E-01 0.561E-01 -.650E+00   -.460E-04 -.914E-03 0.105E-02
   0.926E-01 -.158E+02 -.132E+00   -.298E-01 0.165E+02 0.688E-01   -.511E-01 -.646E+00 0.573E-01   0.385E-03 0.123E-02 0.134E-03
   -.506E+01 -.102E+01 -.139E+01   0.534E+01 0.121E+01 0.160E+01   -.255E+00 -.177E+00 -.188E+00   0.929E-04 -.172E-03 0.908E-03
   0.172E+01 0.176E+01 0.173E+01   -.183E+01 -.186E+01 -.184E+01   0.104E+00 0.951E-01 0.963E-01   -.722E-03 -.132E-02 -.581E-03
   0.155E+01 0.117E+01 -.485E+01   -.179E+01 -.139E+01 0.513E+01   0.217E+00 0.205E+00 -.255E+00   0.605E-03 0.392E-03 -.329E-03
   0.125E+01 -.498E+01 0.993E+00   -.144E+01 0.526E+01 -.118E+01   0.180E+00 -.261E+00 0.171E+00   -.196E-03 -.868E-03 0.261E-03
   0.160E+02 0.191E+00 0.116E+00   -.167E+02 -.122E+00 -.481E-01   0.646E+00 -.615E-01 -.600E-01   0.448E-03 0.475E-03 0.164E-02
   -.472E+01 0.151E+01 0.120E+01   0.499E+01 -.174E+01 -.143E+01   -.244E+00 0.213E+00 0.208E+00   0.101E-02 0.756E-03 0.481E-03
   -.247E-01 0.158E+02 0.223E+00   0.953E-01 -.165E+02 -.154E+00   -.638E-01 0.643E+00 -.620E-01   -.822E-03 0.893E-05 -.340E-03
   0.592E-01 0.203E+00 0.156E+02   0.792E-02 -.138E+00 -.163E+02   -.596E-01 -.608E-01 0.633E+00   0.177E-03 0.127E-02 0.145E-03
   -.675E+02 -.671E+02 -.672E+02   0.718E+02 0.715E+02 0.716E+02   -.401E+01 -.399E+01 -.400E+01   -.999E-03 0.290E-03 0.367E-03
 -----------------------------------------------------------------------------------------------
   -.251E-01 0.416E-01 0.245E-01   0.000E+00 -.213E-12 -.156E-12   0.761E-01 -.101E+00 -.920E-01   -.238E-02 0.137E-02 0.482E-02
 
 
 POSITION                                       TOTAL-FORCE (eV/Angst)
 -----------------------------------------------------------------------------------
     -0.00163      0.00101      6.54414         0.000138      0.000867      0.001578
     -0.00184      6.54453      0.00075        -0.000357      0.000410      0.000487
     -0.00195      6.54386      6.53609        -0.001005      0.000609     -0.002427
      6.54245      0.00035      0.00078        -0.000141      0.000530     -0.000168
      6.55010      0.00145      6.54521         0.001500     -0.000814      0.001574
      6.54485      6.53876     -0.00412        -0.001424     -0.000175     -0.000142
      6.54253      6.54385      6.54398         0.001274     -0.000670      0.000600
     -0.09406      3.19582      3.19589        -0.000073     -0.001098     -0.000598
      0.09654      3.20040      9.88718         0.001071      0.000139     -0.000832
      0.09440      9.89128      3.19657        -0.000513      0.002138     -0.001854
     -0.09640      9.88784      9.88777        -0.000225     -0.002712     -0.002185
      6.53218      3.24907      3.24892         0.000966      0.000260      0.000941
      6.55182      3.24785      9.83866        -0.005509     -0.003278      0.000994
      6.55448      9.83781      3.24978         0.000511     -0.001119     -0.000038
      6.53146      9.83759      9.83841         0.001569      0.000635     -0.000703
      3.19940     -0.09671      3.19993         0.001808     -0.000556      0.002759
      3.19808      0.09612      9.88869        -0.003041     -0.002562      0.002739
      3.24926      6.53276      3.24937        -0.000090     -0.000506     -0.000271
      3.24824      6.55462      9.83843        -0.000237      0.000776     -0.000458
      9.88999      0.09498      3.19687         0.000608     -0.001384     -0.000408
      9.89080     -0.09355      9.89183         0.002065      0.000410      0.000676
      9.83683      6.55540      3.24914        -0.002134      0.001044      0.000114
      9.83697      6.53191      9.83837         0.000282     -0.000884     -0.000751
      3.19473      3.19532     -0.09321        -0.001892     -0.003421      0.000597
      3.24834      3.24963      6.53193         0.001453     -0.001317      0.000458
      3.19894      9.88781      0.09677        -0.000504      0.000044      0.001505
      3.24900      9.83817      6.55538         0.001279      0.000207      0.000629
      9.88878      3.19806      0.09560        -0.000288      0.000734     -0.001547
      9.83748      3.25028      6.55563        -0.000639      0.001095      0.000640
      9.88906      9.89043     -0.09435         0.000177      0.001396      0.000247
      9.83778      9.83861      6.53346        -0.000612      0.000258      0.000610
      1.62831      1.62814      4.88349        -0.002766     -0.001805     -0.002489
      1.51254      1.51422     11.57162        -0.002314      0.003704     -0.000388
      1.63252      8.18633      4.90079        -0.002775      0.003705      0.000878
      1.62818      8.20340     11.45871         0.004666      0.001642     -0.002102
      8.18602      1.63312      4.90175         0.001032     -0.001275      0.000637
      8.20309      1.62863     11.45874         0.001440     -0.001032     -0.003349
      8.18505      8.18496      4.90287        -0.000979      0.001404     -0.000154
      8.18427      8.18437     11.45422         0.003652      0.002998      0.001521
      1.62795      4.88352      1.62869         0.003805     -0.002364     -0.005662
      1.63311      4.90748      8.17975        -0.000672     -0.002404     -0.002811
      1.51515     11.57403      1.51431         0.000073      0.003514      0.003066
      1.62800     11.45832      8.20349         0.000371      0.003967     -0.000976
      8.18451      4.90210      1.63243        -0.000636      0.004369      0.004780
      8.18286      4.90145      8.18650        -0.003784     -0.006144      0.002107
      8.20304     11.45875      1.62864         0.002805     -0.005568     -0.001021
      8.18620     11.45456      8.18705         0.001656     -0.002508      0.004211
      4.88328      1.62821      1.62898         0.002965      0.001307      0.003872
      4.90219      1.63049      8.18261         0.002038      0.003742     -0.008764
      4.90655      8.18076      1.63333         0.000778     -0.000952     -0.002663
      4.90198      8.18433      8.18507        -0.003113      0.001393     -0.000144
     11.57185      1.51400      1.51286         0.001188      0.003898     -0.001287
     11.45803      1.62928      8.20389        -0.000768      0.000319      0.000502
     11.45755      8.20387      1.62888         0.004857     -0.001066      0.001843
     11.45261      8.18051      8.18085        -0.000972      0.003393      0.002853
      4.90253      4.90180      4.90182         0.000118     -0.001961     -0.000881
      4.89934      4.90036     11.45463        -0.000610     -0.000891      0.002655
      4.90717     11.45383      4.90721        -0.001104      0.001133      0.000984
      4.88341     11.45838     11.45869        -0.004718      0.002162      0.003289
     11.45287      4.90105      4.89919        -0.000172      0.001248     -0.000059
     11.45856      4.88345     11.45829        -0.001786     -0.003289      0.000676
     11.45815     11.45871      4.88373        -0.000064     -0.000604     -0.003511
     11.57403     11.57178     11.57261        -0.000229     -0.003091     -0.002382
 -----------------------------------------------------------------------------------
    total drift:                                0.049169     -0.047118     -0.051642


--------------------------------------------------------------------------------------------------------



  FREE ENERGIE OF THE ION-ELECTRON SYSTEM (eV)
  ---------------------------------------------------
  free  energy   TOTEN  =      -202.79601759 eV

  energy  without entropy=     -202.79601759  energy(sigma->0) =     -202.79601759
 
 d Force = 0.1765838E-04[ 0.734E-05, 0.280E-04]  d Energy = 0.1804827E-04-0.390E-06
 d Force = 0.4044888E-01[ 0.404E-01, 0.405E-01]  d Ewald  = 0.4044888E-01-0.178E-09


--------------------------------------------------------------------------------------------------------


    POTLOK:  cpu time    1.1665: real time    1.1761


--------------------------------------------------------------------------------------------------------


 Conjugate gradient step on ions:
 trial-energy change:   -0.000018  1 .order   -0.000018   -0.000028   -0.000007
  (g-gl).g = 0.159E-04      g.g   = 0.359E-04  gl.gl    = 0.373E-04
 g(Force)  = 0.359E-04   g(Stress)= 0.000E+00 ortho     =-0.173E-05
 gamma     =   0.42656
 trial     =   0.79554
 opt step  =   1.07844  (harmonic =   1.07844) maximal distance =0.00026598
 next E    =  -202.796019   (d E  =  -0.00002)


--------------------------------------------------------------------------------------------------------


  
 reached required accuracy - stopping structural energy minimisation
     LOOP+:  cpu time  101.8299: real time  104.1452
    4ORBIT:  cpu time    0.0000: real time    0.0000
 


 total charge     
 
# of ion       s       p       d       tot
------------------------------------------
    1        0.422   0.298   9.592  10.312
    2        0.422   0.298   9.592  10.312
    3        0.424   0.297   9.592  10.313
    4        0.422   0.298   9.592  10.312
    5        0.424   0.297   9.592  10.313
    6        0.424   0.297   9.592  10.312
    7        0.421   0.294   9.592  10.307
    8        0.426   0.294   9.591  10.311
    9        0.426   0.293   9.591  10.311
   10        0.426   0.294   9.591  10.311
   11        0.426   0.293   9.591  10.311
   12        0.422   0.296   9.592  10.311
   13        0.422   0.296   9.592  10.310
   14        0.422   0.296   9.592  10.311
   15        0.422   0.296   9.592  10.311
   16        0.426   0.293   9.591  10.311
   17        0.426   0.294   9.591  10.311
   18        0.422   0.296   9.592  10.310
   19        0.422   0.296   9.592  10.311
   20        0.426   0.294   9.591  10.311
   21        0.426   0.294   9.591  10.311
   22        0.422   0.297   9.592  10.311
   23        0.422   0.296   9.592  10.311
   24        0.426   0.294   9.591  10.311
   25        0.422   0.296   9.592  10.310
   26        0.426   0.293   9.591  10.310
   27        0.422   0.296   9.592  10.310
   28        0.426   0.294   9.591  10.312
   29        0.422   0.296   9.592  10.310
   30        0.426   0.294   9.591  10.311
   31        0.422   0.296   9.592  10.311
   32        1.289   2.309   0.017   3.615
   33        1.307   2.269   0.019   3.596
   34        1.290   2.310   0.017   3.617
   35        1.289   2.309   0.017   3.615
   36        1.290   2.310   0.017   3.617
   37        1.289   2.309   0.017   3.615
   38        1.289   2.310   0.017   3.617
   39        1.290   2.310   0.017   3.617
   40        1.289   2.309   0.017   3.615
   41        1.290   2.310   0.017   3.617
   42        1.307   2.269   0.019   3.596
   43        1.289   2.309   0.017   3.615
   44        1.290   2.311   0.017   3.618
   45        1.289   2.310   0.017   3.617
   46        1.289   2.309   0.017   3.615
   47        1.290   2.310   0.017   3.617
   48        1.289   2.309   0.017   3.615
   49        1.290   2.310   0.017   3.617
   50        1.290   2.310   0.017   3.617
   51        1.289   2.310   0.017   3.617
   52        1.307   2.270   0.019   3.596
   53        1.289   2.309   0.017   3.615
   54        1.289   2.309   0.017   3.615
   55        1.290   2.310   0.017   3.617
   56        1.289   2.310   0.017   3.617
   57        1.290   2.310   0.017   3.617
   58        1.290   2.310   0.017   3.617
   59        1.289   2.309   0.017   3.615
   60        1.290   2.310   0.017   3.617
   61        1.289   2.309   0.017   3.615
   62        1.289   2.309   0.017   3.615
   63        1.307   2.269   0.019   3.596
--------------------------------------------------
tot         54.469  82.908 297.899 435.276
 

 total amount of memory used by VASP MPI-rank0    77526. kBytes
=======================================================================

   base      :      30000. kBytes
   nonlr-proj:       3273. kBytes
   fftplans  :       6877. kBytes
   grid      :      11280. kBytes
   one-center:         46. kBytes
   HF        :        129. kBytes
   wavefun   :       2812. kBytes
   fock_wrk  :      23109. kBytes
 
  
  
 General timing and accounting informations for this job:
 ========================================================
  
                  Total CPU time used (sec):     8441.960
                            User time (sec):     8377.057
                          System time (sec):       64.903
                         Elapsed time (sec):     8664.965
  
                   Maximum memory used (kb):      303116.
                   Average memory used (kb):           0.
  
                          Minor page faults:      1182490
                          Major page faults:           33
                 Voluntary context switches:        61155
