 vasp.6.1.1 19Jun20 (build Oct 26 2020 17:25:13) gamma-only                     
  
 executed on             LinuxIFC date 2021.02.20  06:35:18
 running on   48 total cores
 distrk:  each k-point on   48 cores,    1 groups
 distr:  one band on NCORE=  12 cores,    4 groups


--------------------------------------------------------------------------------------------------------


 INCAR:
 POTCAR:    PAW_PBE Cd 06Sep2000                  
 POTCAR:    PAW_PBE Te 08Apr2002                  
 POTCAR:    PAW_PBE Cd 06Sep2000                  
   VRHFIN =Cd : s2 d10                                                                              
   LEXCH  = PE                                                                                      
   EATOM  =  1293.1815 eV,   95.0462 Ry                                                             
                                                                                                    
   TITEL  = PAW_PBE Cd 06Sep2000                                                                    
   LULTRA =        F    use ultrasoft PP ?                                                          
   IUNSCR =        1    unscreen: 0-lin 1-nonlin 2-no                                               
   RPACOR =    2.000    partial core radius                                                         
   POMASS =  112.411; ZVAL   =   12.000    mass and valenz                                          
   RCORE  =    2.300    outmost cutoff radius                                                       
   RWIGS  =    2.980; RWIGS  =    1.577    wigner-seitz radius (au A)                               
   ENMAX  =  274.336; ENMIN  =  205.752 eV                                                          
   RCLOC  =    2.054    cutoff for local pot                                                        
   LCOR   =        T    correct aug charges                                                         
   LPAW   =        T    paw PP                                                                      
   EAUG   =  456.106                                                                                
   DEXC   =    0.000                                                                                
   RMAX   =    2.358    core radius for proj-oper                                                   
   RAUG   =    1.300    factor for augmentation sphere                                              
   RDEP   =    2.450    radius for radial grids                                                     
   RDEPT  =    1.955    core radius for aug-charge                                                  
                                                                                                    
   Atomic configuration                                                                             
   12 entries                                                                                       
     n  l   j            E        occ.                                                              
     1  0  0.50    -26519.7817   2.0000                                                             
     2  0  0.50     -3936.9612   2.0000                                                             
     2  1  1.50     -3532.2230   6.0000                                                             
     3  0  0.50      -733.7908   2.0000                                                             
     3  1  1.50      -601.0792   6.0000                                                             
     3  2  2.50      -393.5307  10.0000                                                             
     4  0  0.50      -105.8977   2.0000                                                             
     4  1  1.50       -66.9488   6.0000                                                             
     4  2  2.50       -11.7331  10.0000                                                             
     5  0  0.50        -5.6592   2.0000                                                             
     5  1  0.50        -1.3606   0.0000                                                             
     4  3  2.50        -1.3606   0.0000                                                             
   Description                                                                                      
     l       E           TYP  RCUT    TYP  RCUT                                                     
     2    -11.7331479     23  2.300                                                                 
     2    -13.0937305     23  2.300                                                                 
     0     -5.6591502     23  2.300                                                                 
     0     -1.5561433     23  2.300                                                                 
     1     -2.7211652     23  2.300                                                                 
     1      8.3548275     23  2.300                                                                 
  local pseudopotential read in
  partial core-charges read in
  partial kinetic energy density read in
  atomic valenz-charges read in
  non local Contribution for L=           2  read in
    real space projection operators read in
  non local Contribution for L=           2  read in
    real space projection operators read in
  non local Contribution for L=           0  read in
    real space projection operators read in
  non local Contribution for L=           0  read in
    real space projection operators read in
  non local Contribution for L=           1  read in
    real space projection operators read in
  non local Contribution for L=           1  read in
    real space projection operators read in
    PAW grid and wavefunctions read in
 
   number of l-projection  operators is LMAX  =           6
   number of lm-projection operators is LMMAX =          18
 
 POTCAR:    PAW_PBE Te 08Apr2002                  
   VRHFIN =Te: s2p4                                                                                 
   LEXCH  = PE                                                                                      
   EATOM  =   223.2721 eV,   16.4100 Ry                                                             
                                                                                                    
   TITEL  = PAW_PBE Te 08Apr2002                                                                    
   LULTRA =        F    use ultrasoft PP ?                                                          
   IUNSCR =        1    unscreen: 0-lin 1-nonlin 2-no                                               
   RPACOR =    2.200    partial core radius                                                         
   POMASS =  127.600; ZVAL   =    6.000    mass and valenz                                          
   RCORE  =    2.300    outmost cutoff radius                                                       
   RWIGS  =    2.900; RWIGS  =    1.535    wigner-seitz radius (au A)                               
   ENMAX  =  174.982; ENMIN  =  131.236 eV                                                          
   ICORE  =        3    local potential                                                             
   LCOR   =        T    correct aug charges                                                         
   LPAW   =        T    paw PP                                                                      
   EAUG   =  368.792                                                                                
   DEXC   =    0.000                                                                                
   RMAX   =    2.345    core radius for proj-oper                                                   
   RAUG   =    1.300    factor for augmentation sphere                                              
   RDEP   =    2.397    radius for radial grids                                                     
   RDEPT  =    2.174    core radius for aug-charge                                                  
                                                                                                    
   Atomic configuration                                                                             
   13 entries                                                                                       
     n  l   j            E        occ.                                                              
     1  0  0.50    -31621.2075   2.0000                                                             
     2  0  0.50     -4848.7941   2.0000                                                             
     2  1  1.50     -4352.1960   6.0000                                                             
     3  0  0.50      -964.9612   2.0000                                                             
     3  1  1.50      -803.6179   6.0000                                                             
     3  2  2.50      -559.8710  10.0000                                                             
     4  0  0.50      -164.3522   2.0000                                                             
     4  1  1.50      -114.3756   6.0000                                                             
     4  2  2.50       -41.6483  10.0000                                                             
     5  0  0.50       -15.1072   2.0000                                                             
     5  1  0.50        -5.9526   4.0000                                                             
     5  2  1.50        -5.4423   0.0000                                                             
     4  3  2.50        -5.4423   0.0000                                                             
   Description                                                                                      
     l       E           TYP  RCUT    TYP  RCUT                                                     
     0    -15.1072389     23  2.300                                                                 
     0    -16.4678215     23  2.300                                                                 
     1     -5.9526306     23  2.300                                                                 
     1     -2.4873968     23  2.300                                                                 
     2     -5.4423304     23  2.300                                                                 
     3     -1.3605826     23  2.300                                                                 
  local pseudopotential read in
  partial core-charges read in
  partial kinetic energy density read in
  atomic valenz-charges read in
  non local Contribution for L=           0  read in
    real space projection operators read in
  non local Contribution for L=           0  read in
    real space projection operators read in
  non local Contribution for L=           1  read in
    real space projection operators read in
  non local Contribution for L=           1  read in
    real space projection operators read in
  non local Contribution for L=           2  read in
    real space projection operators read in
    PAW grid and wavefunctions read in
 
   number of l-projection  operators is LMAX  =           5
   number of lm-projection operators is LMMAX =          13
 
 Optimization of the real space projectors (new method)

 maximal supplied QI-value         = 16.25
 optimisation between [QCUT,QGAM] = [ 10.73, 21.61] = [ 32.22,130.83] Ry 
 Optimized for a Real-space Cutoff    1.34 Angstroem

   l    n(q)    QCUT    max X(q) W(low)/X(q) W(high)/X(q)  e(spline) 
   2      8    10.726    73.106    0.62E-03    0.58E-03    0.13E-06
   2      8    10.726    71.731    0.63E-03    0.59E-03    0.13E-06
   0      9    10.726   146.509    0.37E-03    0.31E-03    0.93E-07
   0      9    10.726    95.017    0.35E-03    0.30E-03    0.90E-07
   1      8    10.726    36.165    0.40E-03    0.62E-04    0.20E-06
   1      8    10.726    31.530    0.37E-03    0.46E-04    0.19E-06
 Optimization of the real space projectors (new method)

 maximal supplied QI-value         = 16.25
 optimisation between [QCUT,QGAM] = [ 10.73, 21.61] = [ 32.22,130.83] Ry 
 Optimized for a Real-space Cutoff    1.26 Angstroem

   l    n(q)    QCUT    max X(q) W(low)/X(q) W(high)/X(q)  e(spline) 
   0      8    10.726   224.858    0.42E-03    0.29E-03    0.13E-06
   0      8    10.726   205.313    0.42E-03    0.29E-03    0.14E-06
   1      8    10.726   119.695    0.28E-03    0.65E-03    0.18E-06
   1      8    10.726    84.282    0.28E-03    0.64E-03    0.18E-06
   2      7    10.726     5.599    0.26E-03    0.18E-03    0.37E-07
  PAW_PBE Cd 06Sep2000                  :
 energy of atom  1       EATOM=-1293.1815
 kinetic energy error for atom=    0.0084 (will be added to EATOM!!)
  PAW_PBE Te 08Apr2002                  :
 energy of atom  2       EATOM= -223.2721
 kinetic energy error for atom=    0.0008 (will be added to EATOM!!)
 
 
 POSCAR: -20.0%_BDM_Distortion_vac_1_Cd[0. 0. 0.]
  positions in direct lattice
  velocities in cartesian coordinates
 exchange correlation table for  LEXCH =        8
   RHO(1)=    0.500       N(1)  =     2000
   RHO(2)=  100.500       N(2)  =     4000
 


--------------------------------------------------------------------------------------------------------


 ion  position               nearest neighbor table
   1  0.002  0.998  0.498-  43 2.84  62 2.84  32 2.84  53 2.84
   2  0.002  0.498  0.998-  40 2.84  35 2.84  61 2.84  54 2.84
   3  0.002  0.498  0.498-  41 2.84  60 2.84  34 2.84  55 2.85
   4  0.502  0.998  0.998-  59 2.84  46 2.84  37 2.84  48 2.84
   5  0.502  0.997  0.499-  47 2.84  58 2.84  36 2.84  49 2.84
   6  0.501  0.497  0.998-  44 2.84  50 2.84  57 2.84  39 2.85
   7  0.502  0.498  0.498-  45 2.83  51 2.84  38 2.84  56 2.84
   8  0.993  0.243  0.244-  52 2.78  60 2.85  32 2.88  40 2.88
   9  0.006  0.244  0.753-  33 2.78  41 2.86  61 2.87  53 2.87
  10  0.009  0.754  0.244-  42 2.79  34 2.85  62 2.87  54 2.88
  11  0.995  0.752  0.753-  63 2.78  55 2.86  35 2.87  43 2.87
  12  0.500  0.246  0.247-  48 2.83  36 2.84  56 2.84  44 2.84
  13  0.503  0.245  0.750-  37 2.83  49 2.84  57 2.84  45 2.85
  14  0.502  0.749  0.247-  46 2.83  58 2.84  50 2.84  38 2.84
  15  0.501  0.749  0.750-  59 2.83  39 2.84  47 2.85  51 2.85
  16  0.244  0.993  0.245-  42 2.80  32 2.85  58 2.86  48 2.87
  17  0.245  0.002  0.752-  33 2.80  43 2.85  59 2.86  49 2.87
  18  0.251  0.498  0.247-  40 2.84  34 2.84  56 2.84  50 2.84
  19  0.251  0.497  0.750-  35 2.83  57 2.84  41 2.84  51 2.85
  20  0.757  0.004  0.244-  52 2.80  62 2.85  36 2.86  46 2.87
  21  0.758  0.994  0.754-  63 2.80  53 2.85  37 2.86  47 2.87
  22  0.752  0.498  0.248-  54 2.83  60 2.83  44 2.84  38 2.84
  23  0.752  0.498  0.749-  61 2.82  55 2.84  39 2.84  45 2.85
  24  0.245  0.242  0.996-  33 2.81  40 2.85  48 2.86  57 2.87
  25  0.251  0.247  0.498-  32 2.83  41 2.84  49 2.84  56 2.85
  26  0.244  0.753  0.003-  42 2.79  35 2.86  50 2.86  59 2.87
  27  0.252  0.748  0.499-  43 2.83  34 2.84  51 2.84  58 2.84
  28  0.758  0.244  0.005-  52 2.79  61 2.86  44 2.86  37 2.87
  29  0.751  0.247  0.499-  53 2.82  60 2.84  36 2.84  45 2.84
  30  0.757  0.752  0.996-  63 2.81  54 2.84  46 2.86  39 2.87
  31  0.752  0.749  0.498-  62 2.83  55 2.84  47 2.84  38 2.85
  32  0.126  0.124  0.372-  25 2.83   1 2.84  16 2.85   8 2.88
  33  0.117  0.115  0.880-   9 2.78  17 2.80  24 2.81
  34  0.127  0.623  0.372-  18 2.84  27 2.84   3 2.84  10 2.85
  35  0.127  0.624  0.873-  19 2.83   2 2.84  26 2.86  11 2.87
  36  0.626  0.122  0.373-  12 2.84  29 2.84   5 2.84  20 2.86
  37  0.629  0.123  0.875-  13 2.83   4 2.84  21 2.86  28 2.87
  38  0.626  0.624  0.373-   7 2.84  14 2.84  22 2.84  31 2.85
  39  0.627  0.624  0.874-  15 2.84  23 2.84   6 2.85  30 2.87
  40  0.125  0.371  0.124-  18 2.84   2 2.84  24 2.85   8 2.88
  41  0.127  0.372  0.624-   3 2.84  25 2.84  19 2.84   9 2.86
  42  0.116  0.883  0.113-  10 2.79  26 2.79  16 2.80
  43  0.126  0.872  0.624-  27 2.83   1 2.84  17 2.85  11 2.87
  44  0.626  0.372  0.124-   6 2.84  12 2.84  22 2.84  28 2.86
  45  0.626  0.373  0.624-   7 2.83  29 2.84  23 2.85  13 2.85
  46  0.629  0.874  0.123-  14 2.83   4 2.84  30 2.86  20 2.87
  47  0.628  0.874  0.625-   5 2.84  31 2.84  15 2.85  21 2.87
  48  0.374  0.121  0.123-  12 2.83   4 2.84  24 2.86  16 2.87
  49  0.376  0.122  0.624-  13 2.84  25 2.84   5 2.84  17 2.87
  50  0.376  0.625  0.121-  14 2.84   6 2.84  18 2.84  26 2.86
  51  0.377  0.622  0.624-   7 2.84  27 2.84  15 2.85  19 2.85
  52  0.886  0.114  0.113-   8 2.78  28 2.79  20 2.80
  53  0.876  0.123  0.624-  29 2.82   1 2.84  21 2.85   9 2.87
  54  0.877  0.624  0.124-  22 2.83  30 2.84   2 2.84  10 2.88
  55  0.876  0.624  0.623-  31 2.84  23 2.84   3 2.85  11 2.86
  56  0.376  0.373  0.372-   7 2.84  12 2.84  18 2.84  25 2.85
  57  0.376  0.370  0.875-  19 2.84  13 2.84   6 2.84  24 2.87
  58  0.376  0.873  0.372-  14 2.84   5 2.84  27 2.84  16 2.86
  59  0.374  0.874  0.874-  15 2.83   4 2.84  17 2.86  26 2.87
  60  0.876  0.373  0.374-  22 2.83  29 2.84   3 2.84   8 2.85
  61  0.876  0.372  0.873-  23 2.82   2 2.84  28 2.86   9 2.87
  62  0.877  0.874  0.372-  31 2.83   1 2.84  20 2.85  10 2.87
  63  0.885  0.880  0.883-  11 2.78  21 2.80  30 2.81
 

IMPORTANT INFORMATION: All symmetrisations will be switched off!
NOSYMM: (Re-)initialisation of all symmetry stuff for point group C_1.


----------------------------------------------------------------------------------------

                                     Primitive cell                                     

  volume of cell :    2241.2856

  direct lattice vectors                    reciprocal lattice vectors
    13.086768000  0.000000000  0.000000000     0.076413061  0.000000000  0.000000000
     0.000000000 13.086768000  0.000000000     0.000000000  0.076413061  0.000000000
     0.000000000  0.000000000 13.086768000     0.000000000  0.000000000  0.076413061

  length of vectors
    13.086768000 13.086768000 13.086768000     0.076413061  0.076413061  0.076413061

  position of ions in fractional coordinates (direct lattice)
     0.001979245  0.997861390  0.498177374
     0.001901872  0.497898436  0.998121571
     0.002047058  0.498091324  0.498401363
     0.501711381  0.997709900  0.997917962
     0.501628056  0.997017684  0.499086904
     0.501245638  0.497388692  0.998113383
     0.501927653  0.497848622  0.498238336
     0.992998119  0.243340540  0.244032133
     0.006355346  0.243721488  0.752595023
     0.008868698  0.753924104  0.243687044
     0.995385827  0.752146494  0.753422885
     0.500049907  0.246227357  0.247429967
     0.502728331  0.245454760  0.750180982
     0.501799845  0.749421725  0.246681151
     0.500603810  0.749012752  0.750008635
     0.244450078  0.992767699  0.244602557
     0.245141321  0.001592133  0.751931723
     0.251089748  0.498351845  0.246533563
     0.251348626  0.496791238  0.750150571
     0.757438023  0.004120580  0.244213425
     0.757992176  0.993917890  0.754158753
     0.752077071  0.498193028  0.248010290
     0.752339009  0.497724141  0.749117807
     0.244767365  0.242440159  0.996008861
     0.251152708  0.247237524  0.497640401
     0.244298886  0.753464748  0.003361318
     0.251720640  0.747712951  0.498506016
     0.757685114  0.244454664  0.004868846
     0.751299498  0.246752930  0.499209573
     0.756880869  0.751578827  0.996363356
     0.752281458  0.749443157  0.497644169
     0.125784857  0.123774702  0.371868428
     0.117129639  0.114588979  0.880321932
     0.126640401  0.623468513  0.372396425
     0.126683550  0.623741285  0.872931652
     0.626139636  0.122406334  0.372924330
     0.629299281  0.122808236  0.874957325
     0.626067822  0.623922995  0.372806482
     0.627303330  0.624050450  0.873994507
     0.125339205  0.371443548  0.123990801
     0.126620238  0.372395371  0.623602711
     0.116228115  0.883271511  0.113158945
     0.126169858  0.871978847  0.623840366
     0.626108266  0.372262808  0.123534837
     0.625976918  0.372639937  0.624005453
     0.628606798  0.874353444  0.123283706
     0.627649623  0.873688342  0.625104853
     0.374267008  0.121124416  0.123188005
     0.375957533  0.122440732  0.624075573
     0.375979638  0.624663939  0.121465832
     0.376620518  0.622322010  0.624015131
     0.885994724  0.113922920  0.113482197
     0.876175877  0.122649271  0.624047629
     0.877438051  0.623926863  0.124050755
     0.876134877  0.623770685  0.623376050
     0.376428993  0.373397951  0.372453918
     0.375698049  0.370061174  0.874513118
     0.375930057  0.873494124  0.372283948
     0.374298750  0.873952507  0.873669364
     0.875804106  0.372784976  0.373983019
     0.876362053  0.372202648  0.873436541
     0.876563338  0.873753595  0.371707719
     0.885456512  0.880435102  0.882796508

  ion indices of the primitive-cell ions
   primitive index   ion index
                 1           1
                 2           2
                 3           3
                 4           4
                 5           5
                 6           6
                 7           7
                 8           8
                 9           9
                10          10
                11          11
                12          12
                13          13
                14          14
                15          15
                16          16
                17          17
                18          18
                19          19
                20          20
                21          21
                22          22
                23          23
                24          24
                25          25
                26          26
                27          27
                28          28
                29          29
                30          30
                31          31
                32          32
                33          33
                34          34
                35          35
                36          36
                37          37
                38          38
                39          39
                40          40
                41          41
                42          42
                43          43
                44          44
                45          45
                46          46
                47          47
                48          48
                49          49
                50          50
                51          51
                52          52
                53          53
                54          54
                55          55
                56          56
                57          57
                58          58
                59          59
                60          60
                61          61
                62          62
                63          63

----------------------------------------------------------------------------------------

 
 
 KPOINTS: Kpoints from DefectsWithTheBoys.vasp_gam

Automatic generation of k-mesh.
Space group operators:
 irot       det(A)        alpha          n_x          n_y          n_z        tau_x        tau_y        tau_z
    1     1.000000     0.000000     1.000000     0.000000     0.000000     0.000000     0.000000     0.000000
 
 Subroutine IBZKPT returns following result:
 ===========================================
 
 Found      1 irreducible k-points:
 
 Following reciprocal coordinates:
            Coordinates               Weight
  0.000000  0.000000  0.000000      1.000000
 
 Following cartesian coordinates:
            Coordinates               Weight
  0.000000  0.000000  0.000000      1.000000
 
 
 Subroutine IBZKPT_HF returns following result:
 ==============================================
 
 Found      1 k-points in 1st BZ
 the following      1 k-points will be used (e.g. in the exchange kernel)
 Following reciprocal coordinates:   # in IRBZ
  0.000000  0.000000  0.000000    1.00000000   1 t-inv F


--------------------------------------------------------------------------------------------------------




 Dimension of arrays:
   k-points           NKPTS =      1   k-points in BZ     NKDIM =      1   number of bands    NBANDS=    340
   number of dos      NEDOS =   2000   number of ions     NIONS =     63
   non local maximal  LDIM  =      6   non local SUM 2l+1 LMDIM =     18
   total plane-waves  NPLWV = 884736
   max r-space proj   IRMAX =   4034   max aug-charges    IRDMAX=  23156
   dimension x,y,z NGX =    96 NGY =   96 NGZ =   96
   dimension x,y,z NGXF=   192 NGYF=  192 NGZF=  192
   support grid    NGXF=   192 NGYF=  192 NGZF=  192
   ions per type =              31  32
   NGX,Y,Z   is equivalent  to a cutoff of  12.20, 12.20, 12.20 a.u.
   NGXF,Y,Z  is equivalent  to a cutoff of  24.39, 24.39, 24.39 a.u.

 SYSTEM =  unknown system                          
 POSCAR =  -20.0%_BDM_Distortion_vac_1_Cd[0. 0. 0.]

 Startparameter for this run:
   NWRITE =      2    write-flag & timer
   PREC   = accura    normal or accurate (medium, high low for compatibility)
   ISTART =      0    job   : 0-new  1-cont  2-samecut
   ICHARG =      1    charge: 1-file 2-atom 10-const
   ISPIN  =      1    spin polarized calculation?
   LNONCOLLINEAR =      F non collinear calculations
   LSORBIT =      F    spin-orbit coupling
   INIWAV =      1    electr: 0-lowe 1-rand  2-diag
   LASPH  =      T    aspherical Exc in radial PAW
   METAGGA=      F    non-selfconsistent MetaGGA calc.

 Electronic Relaxation 1
   ENCUT  =  450.0 eV  33.07 Ry    5.75 a.u.  22.64 22.64 22.64*2*pi/ulx,y,z
   ENINI  =  450.0     initial cutoff
   ENAUG  =  456.1 eV  augmentation charge cutoff
   NELM   =    100;   NELMIN=  2; NELMDL=  0     # of ELM steps 
   EDIFF  = 0.5E-05   stopping-criterion for ELM
   LREAL  =      T    real-space projection
   NLSPLINE    = F    spline interpolate recip. space projectors
   LCOMPAT=      F    compatible to vasp.4.4
   GGA_COMPAT  = T    GGA compatible to vasp.4.4-vasp.4.6
   LMAXPAW     = -100 max onsite density
   LMAXMIX     =    2 max onsite mixed and CHGCAR
   VOSKOWN=      0    Vosko Wilk Nusair interpolation
   ROPT   =   -0.00100  -0.00100
 Ionic relaxation
   EDIFFG = -.1E-01   stopping-criterion for IOM
   NSW    =    300    number of steps for IOM
   NBLOCK =      1;   KBLOCK =    300    inner block; outer block 
   IBRION =      2    ionic relax: 0-MD 1-quasi-New 2-CG
   NFREE  =      1    steps in history (QN), initial steepest desc. (CG)
   ISIF   =      2    stress and relaxation
   IWAVPR =     11    prediction:  0-non 1-charg 2-wave 3-comb
   ISYM   =      0    0-nonsym 1-usesym 2-fastsym
   LCORR  =      T    Harris-Foulkes like correction to forces

   POTIM  = 0.2000    time-step for ionic-motion
   TEIN   =    0.0    initial temperature
   TEBEG  =    0.0;   TEEND  =   0.0 temperature during run
   SMASS  =  -3.00    Nose mass-parameter (am)
   estimated Nose-frequenzy (Omega)   =  0.10E-29 period in steps = 0.31E+47 mass=  -0.391E-26a.u.
   SCALEE = 1.0000    scale energy and forces
   NPACO  =    256;   APACO  = 16.0  distance and # of slots for P.C.
   PSTRESS=    0.0 pullay stress

  Mass of Ions in am
   POMASS = 112.41127.60
  Ionic Valenz
   ZVAL   =  12.00  6.00
  Atomic Wigner-Seitz radii
   RWIGS  =  -1.00 -1.00
  virtual crystal weights 
   VCA    =   1.00  1.00
   NELECT =     564.0000    total number of electrons
   NUPDOWN=       0.0000    fix difference up-down

 DOS related values:
   EMIN   =  10.00;   EMAX   =-10.00  energy-range for DOS
   EFERMI =   0.00
   ISMEAR =     0;   SIGMA  =   0.05  broadening in eV -4-tet -1-fermi 0-gaus

 Electronic relaxation 2 (details)
   IALGO  =     38    algorithm
   LDIAG  =      T    sub-space diagonalisation (order eigenvalues)
   LSUBROT=      F    optimize rotation matrix (better conditioning)
   TURBO    =      0    0=normal 1=particle mesh
   IRESTART =      0    0=no restart 2=restart with 2 vectors
   NREBOOT  =      0    no. of reboots
   NMIN     =      0    reboot dimension
   EREF     =   0.00    reference energy to select bands
   IMIX   =      1    mixing-type and parameters
     AMIX     =   0.40;   BMIX     =  1.00
     AMIX_MAG =   1.60;   BMIX_MAG =  1.00
     AMIN     =   0.10
     WC   =   100.;   INIMIX=   1;  MIXPRE=   1;  MAXMIX= -45

 Intra band minimization:
   WEIMIN = 0.0010     energy-eigenvalue tresh-hold
   EBREAK =  0.37E-08  absolut break condition
   DEPER  =   0.30     relativ break condition  

   TIME   =   0.40     timestep for ELM

  volume/ion in A,a.u.               =      35.58       240.08
  Fermi-wavevector in a.u.,A,eV,Ry     =   1.033559  1.953144 14.534357  1.068245
  Thomas-Fermi vector in A             =   2.167812
 
 Write flags
   LWAVE        =      F    write WAVECAR
   LDOWNSAMPLE  =      F    k-point downsampling of WAVECAR
   LCHARG       =      T    write CHGCAR
   LVTOT        =      F    write LOCPOT, total local potential
   LVHAR        =      F    write LOCPOT, Hartree potential only
   LELF         =      F    write electronic localiz. function (ELF)
   LORBIT       =     11    0 simple, 1 ext, 2 COOP (PROOUT), +10 PAW based schemes


 Dipole corrections
   LMONO  =      F    monopole corrections only (constant potential shift)
   LDIPOL =      F    correct potential (dipole corrections)
   IDIPOL =      0    1-x, 2-y, 3-z, 4-all directions 
   EPSILON=  1.0000000 bulk dielectric constant

 Exchange correlation treatment:
   GGA     =    --    GGA type
   LEXCH   =     8    internal setting for exchange type
   VOSKOWN=      0    Vosko Wilk Nusair interpolation
   EXXOEP  =     0    0=HF, 1=EXX-LHF (local Hartree Fock) 2=EXX OEP
   LHFCALC =     T    Hartree Fock is set to
   LSYMGRAD=     F    symmetrize gradient (conserves proper symmetry)
   PRECFOCK=fast      Normal, Fast or Accurate (Low or Medium for compatibility)
   LRHFCALC=     F    long range Hartree Fock
   LRSCOR  =     F    long range correlation only (use DFT for short range part)
   LTHOMAS =     F    Thomas Fermi screening in HF
   LMODELHF=     F    short range full HF, long range fraction AEXX
   LFOCKACE=     T    use Adeptively-Compressed-Exchange operator
   ENCUT4O =  -1.0   cutoff for four orbital integrals eV
   LMAXFOCK=     4    L truncation for augmentation on plane wave grid
   LMAXFOCKAE=  -1    L truncation for all-electron charge restoration on plane wave grid
   NMAXFOCKAE=   1    number of basis functions for all-electron charge restoration
   LFOCKAEDFT=     F  apply the AE augmentation even for DFT
   NKREDX  =     1    reduce k-point grid by
   NKREDY  =     1    reduce k-point grid by
   NKREDZ  =     1    reduce k-point grid by
   SHIFTRED=     F    shift reduced grid of Gamma
   HFKIDENT=     F    idential grid for each k-point
   ODDONLY =     F    use only odd q-grid points
   EVENONLY=     F    use only even q-grid points
   HFALPHA =   -1.0000 decay constant for conv. correction
   MCALPHA =    0.0000 extent of test-charge in conv. correction in multipole expansion
   AEXX    =    0.3450 exact exchange contribution
   HFSCREEN=    0.2000 screening length (either q_TF or 0.3 A-1)
   HFSCREENC=   0.2000 screening length for correlation (either q_TF or 0.3 A-1)
   HFRCUT  =    0.0000 spherical cutoff for potential kernel
   ALDAX   =    0.6550 LDA exchange part
   AGGAX   =    0.6550 GGA exchange part
   ALDAC   =    1.0000 LDA correlation
   AGGAC   =    1.0000 GGA correlation
   ENCUTFOCK=  -1.0 apply spherical cutoff to Coloumb kernel
   NBANDSGWLOW=     1    first orbital included in HF term
   NBLOCK_FOCK=    64    blocking factor in FOCK_ACC
 Linear response parameters
   LEPSILON=     F    determine dielectric tensor
   LRPA    =     F    only Hartree local field effects (RPA)
   LNABLA  =     F    use nabla operator in PAW spheres
   LVEL    =     F    velocity operator in full k-point grid
   LINTERFAST=   F  fast interpolation
   KINTER  =     0    interpolate to denser k-point grid
   CSHIFT  =0.1000    complex shift for real part using Kramers Kronig
   OMEGAMAX=  -1.0    maximum frequency
   DEG_THRESHOLD= 0.2000000E-02 threshold for treating states as degnerate
   RTIME   =   -0.100 relaxation time in fs
  (WPLASMAI=    0.000 imaginary part of plasma frequency in eV, 0.658/RTIME)
   DFIELD  = 0.0000000 0.0000000 0.0000000 field for delta impulse in time
 
 Orbital magnetization related:
   ORBITALMAG=     F  switch on orbital magnetization
   LCHIMAG   =     F  perturbation theory with respect to B field
   DQ        =  0.001000  dq finite difference perturbation B field
   LLRAUG    =     F  two centre corrections for induced B field



--------------------------------------------------------------------------------------------------------


 conjugate gradient relaxation of ions
 charge density and potential will be updated during run
 non-spin polarized calculation
 Variant of blocked Davidson
 Davidson routine will perform the subspace rotation
 perform sub-space diagonalisation
    after iterative eigenvector-optimisation
 Kerker-like  mixing scheme
 using additional bands           58
 real space projection scheme for non local part
 use partial core corrections
 calculate Harris-corrections to forces 
   (improved forces if not selfconsistent)
 use gradient corrections 
 use of overlap-Matrix (Vanderbilt PP)
 Gauss-broadening in eV      SIGMA  =   0.05


--------------------------------------------------------------------------------------------------------


  energy-cutoff  :      450.00
  volume of cell :     2241.29
      direct lattice vectors                 reciprocal lattice vectors
    13.086768000  0.000000000  0.000000000     0.076413061  0.000000000  0.000000000
     0.000000000 13.086768000  0.000000000     0.000000000  0.076413061  0.000000000
     0.000000000  0.000000000 13.086768000     0.000000000  0.000000000  0.076413061

  length of vectors
    13.086768000 13.086768000 13.086768000     0.076413061  0.076413061  0.076413061


 
 k-points in units of 2pi/SCALE and weight: Kpoints from DefectsWithTheBoys.vasp_gam
   0.00000000  0.00000000  0.00000000       1.000
 
 k-points in reciprocal lattice and weights: Kpoints from DefectsWithTheBoys.vasp_gam
   0.00000000  0.00000000  0.00000000       1.000
 
 position of ions in fractional coordinates (direct lattice) 
   0.00197925  0.99786139  0.49817737
   0.00190187  0.49789844  0.99812157
   0.00204706  0.49809132  0.49840136
   0.50171138  0.99770990  0.99791796
   0.50162806  0.99701768  0.49908690
   0.50124564  0.49738869  0.99811338
   0.50192765  0.49784862  0.49823834
   0.99299812  0.24334054  0.24403213
   0.00635535  0.24372149  0.75259502
   0.00886870  0.75392410  0.24368704
   0.99538583  0.75214649  0.75342288
   0.50004991  0.24622736  0.24742997
   0.50272833  0.24545476  0.75018098
   0.50179984  0.74942173  0.24668115
   0.50060381  0.74901275  0.75000863
   0.24445008  0.99276770  0.24460256
   0.24514132  0.00159213  0.75193172
   0.25108975  0.49835184  0.24653356
   0.25134863  0.49679124  0.75015057
   0.75743802  0.00412058  0.24421343
   0.75799218  0.99391789  0.75415875
   0.75207707  0.49819303  0.24801029
   0.75233901  0.49772414  0.74911781
   0.24476737  0.24244016  0.99600886
   0.25115271  0.24723752  0.49764040
   0.24429889  0.75346475  0.00336132
   0.25172064  0.74771295  0.49850602
   0.75768511  0.24445466  0.00486885
   0.75129950  0.24675293  0.49920957
   0.75688087  0.75157883  0.99636336
   0.75228146  0.74944316  0.49764417
   0.12578486  0.12377470  0.37186843
   0.11712964  0.11458898  0.88032193
   0.12664040  0.62346851  0.37239642
   0.12668355  0.62374129  0.87293165
   0.62613964  0.12240633  0.37292433
   0.62929928  0.12280824  0.87495733
   0.62606782  0.62392299  0.37280648
   0.62730333  0.62405045  0.87399451
   0.12533920  0.37144355  0.12399080
   0.12662024  0.37239537  0.62360271
   0.11622811  0.88327151  0.11315895
   0.12616986  0.87197885  0.62384037
   0.62610827  0.37226281  0.12353484
   0.62597692  0.37263994  0.62400545
   0.62860680  0.87435344  0.12328371
   0.62764962  0.87368834  0.62510485
   0.37426701  0.12112442  0.12318801
   0.37595753  0.12244073  0.62407557
   0.37597964  0.62466394  0.12146583
   0.37662052  0.62232201  0.62401513
   0.88599472  0.11392292  0.11348220
   0.87617588  0.12264927  0.62404763
   0.87743805  0.62392686  0.12405076
   0.87613488  0.62377068  0.62337605
   0.37642899  0.37339795  0.37245392
   0.37569805  0.37006117  0.87451312
   0.37593006  0.87349412  0.37228395
   0.37429875  0.87395251  0.87366936
   0.87580411  0.37278498  0.37398302
   0.87636205  0.37220265  0.87343654
   0.87656334  0.87375360  0.37170772
   0.88545651  0.88043510  0.88279651
 
 position of ions in cartesian coordinates  (Angst):
   0.02590192 13.05878051  6.51953171
   0.02488936  6.51588132 13.06218543
   0.02678938  6.51840560  6.52246301
   6.56578045 13.05679799 13.05952085
   6.56468999 13.04773912  6.53143453
   6.55968538  6.50921042 13.06207828
   6.56861075  6.51522941  6.52032951
  12.99513601  3.18454119  3.19359191
   0.08317094  3.18952657  9.84903646
   0.11606260  9.86642984  3.18907580
  13.02638338  9.84316667  9.85987050
   6.54403712  3.22232030  3.23805857
   6.57908903  3.21220949  9.81744447
   6.56693815  9.80750826  3.22825899
   6.55128592  9.80215611  9.81518900
   3.19906146 12.99212055  3.20105691
   3.20810760  0.02083588  9.84035601
   3.28595328  6.52181497  3.22632754
   3.28934116  6.50139168  9.81704649
   9.91241567  0.05392508  3.19596444
   9.91966776 13.00717284  9.86950063
   9.84225815  6.51973658  3.24565312
   9.84568607  6.51360036  9.80353094
   3.20321372  3.17275812 13.03453689
   3.28677723  3.23554012  6.51250447
   3.19708284  9.86041836  0.04398878
   3.29420962  9.78514592  6.52383258
   9.91564930  3.19912147  0.06371746
   9.83208223  3.22919835  6.53303987
   9.90512434  9.83573774 13.03917608
   9.84493291  9.80778872  6.51255379
   1.64611724  1.61981081  4.86655585
   1.53284841  1.49959938 11.52056888
   1.65731355  8.15918779  4.87346562
   1.65787823  8.16275749 11.42385401
   8.19414415  1.60190329  4.88037418
   8.23549370  1.60716290 11.45036352
   8.19320434  8.16513548  4.87883194
   8.20937315  8.16680346 11.43776335
   1.64028509  4.86099554  1.62263884
   1.65704968  4.87345182  8.16094400
   1.52105037 11.55916935  1.48088486
   1.65115566 11.41138487  8.16405414
   8.19373362  4.87171700  1.61667176
   8.19201470  4.87665240  8.16621459
   8.22643133 11.44246067  1.61338525
   8.21390500 11.43375664  8.18060219
   4.89794551  1.58512713  1.61213285
   4.92006901  1.60235345  8.16713224
   4.92035829  8.17483205  1.58959517
   4.92874534  8.14418376  8.16634124
  11.59480741  1.49088282  1.48511518
  11.46631043  1.60508256  8.16676654
  11.48282821  8.16518611  1.62342346
  11.46577387  8.16314223  8.15797774
   4.92623890  4.88657236  4.87421801
   4.91667321  4.84290473 11.44455029
   4.91970944 11.43121496  4.87199366
   4.89836091 11.43721370 11.43350827
  11.46144515  4.87855050  4.89422900
  11.46874687  4.87092971 11.43046137
  11.47138104 11.43461059  4.86445269
  11.58776395 11.52204992 11.55295310
 


--------------------------------------------------------------------------------------------------------


 use parallel FFT for orbitals z direction half grid
 k-point   1 :   0.0000 0.0000 0.0000  plane waves:   24251

 maximum and minimum number of plane-waves per node :      2027     2015

 maximum number of plane-waves:     24251
 maximum index in each direction: 
   IXMAX=   22   IYMAX=   22   IZMAX=   22
   IXMIN=  -22   IYMIN=  -22   IZMIN=    0


 real space projection operators:
  total allocation   :      27336.54 KBytes
  max/ min on nodes  :       2583.80       2071.14


 parallel 3D FFT for wavefunctions:
    minimum data exchange during FFTs selected (reduces bandwidth)
 parallel 3D FFT for charge:
    minimum data exchange during FFTs selected (reduces bandwidth)


 FFT grid for exact exchange (Hartree Fock) 
  NGX = 48; NGY = 48; NGZ = 48

 use parallel FFT for orbitals z direction half grid
 
 Radii for the augmentation spheres in the non-local exchange
 for species   1 augmentation radius   1.444 (default was   1.070)
       energy cutoff for augmentation   1800.0
 for species   2 augmentation radius   1.606 (default was   1.190)
       energy cutoff for augmentation   1800.0

 real space projection operators:
  total allocation   :       9133.20 KBytes
  max/ min on nodes  :        875.78        555.47

 Maximum index for augmentation-charges in exchange           92
  SETUP_FOCK is finished

 total amount of memory used by VASP MPI-rank0    54471. kBytes
=======================================================================

   base      :      30000. kBytes
   nonlr-proj:       3327. kBytes
   fftplans  :       6877. kBytes
   grid      :      11280. kBytes
   one-center:         46. kBytes
   HF        :        129. kBytes
   wavefun   :       2812. kBytes
 
     INWAV:  cpu time    0.0000: real time    0.0000
 initial charge density was supplied:
 charge density of overlapping atoms calculated
 number of electron     564.0000000 magnetization 
 keeping initial charge density in first step


--------------------------------------------------------------------------------------------------------


 Maximum index for non-local projection operator          301
 Maximum index for augmentation-charges          780 (set IRDMAX)


--------------------------------------------------------------------------------------------------------


 First call to EWALD:  gamma=   0.135
 Maximum number of real-space cells 3x 3x 3
 Maximum number of reciprocal cells 3x 3x 3

    FEWALD:  cpu time    0.0024: real time    0.0028


--------------------------------------- Iteration      1(   1)  ---------------------------------------


    POTLOK:  cpu time    0.1056: real time    0.1246
    SETDIJ:  cpu time    0.5721: real time    0.5754
     EDDAV:  cpu time    1.4808: real time    1.5133
       DOS:  cpu time    0.0028: real time    0.0028
    --------------------------------------------
      LOOP:  cpu time    2.1613: real time    2.2161

 eigenvalue-minimisations  :   720
 total energy-change (2. order) :-0.8813049E+05  (-0.2743264E+05)
 number of electron     564.0000000 magnetization 
 augmentation part      564.0000000 magnetization 

 Free energy of the ion-electron system (eV)
  ---------------------------------------------------
  alpha Z        PSCENC =      1482.04539224
  Ewald energy   TEWEN  =    -31948.02366936
  -Hartree energ DENC   =    -16281.31536344
  -exchange      EXHF   =         0.00000000
  -V(xc)+E(xc)   XCENC  =      -734.38257952
  PAW double counting   =     43745.08136476  -132352.96792733
  entropy T*S    EENTRO =        -0.00028975
  eigenvalues    EBANDS =       820.69476042
  atomic energy  EATOM  =     47138.37786884
  Solvation  Ediel_sol  =         0.00000000
  ---------------------------------------------------
  free energy    TOTEN  =    -88130.49044315 eV

  energy without entropy =   -88130.49015339  energy(sigma->0) =   -88130.49029827
  exchange ACFDT corr.  =         0.00000000  see jH, gK, PRB 81, 115126


--------------------------------------------------------------------------------------------------------




--------------------------------------- Iteration      1(   2)  ---------------------------------------


     EDDAV:  cpu time    1.4942: real time    1.4974
       DOS:  cpu time    0.0008: real time    0.0008
    --------------------------------------------
      LOOP:  cpu time    1.4950: real time    1.4982

 eigenvalue-minimisations  :   780
 total energy-change (2. order) :-0.4694707E+04  (-0.4558038E+04)
 number of electron     564.0000000 magnetization 
 augmentation part      564.0000000 magnetization 

 Free energy of the ion-electron system (eV)
  ---------------------------------------------------
  alpha Z        PSCENC =      1482.04539224
  Ewald energy   TEWEN  =    -31948.02366936
  -Hartree energ DENC   =    -16281.31536344
  -exchange      EXHF   =         0.00000000
  -V(xc)+E(xc)   XCENC  =      -734.38257952
  PAW double counting   =     43745.08136476  -132352.96792733
  entropy T*S    EENTRO =        -0.00000557
  eigenvalues    EBANDS =     -3874.01238013
  atomic energy  EATOM  =     47138.37786884
  Solvation  Ediel_sol  =         0.00000000
  ---------------------------------------------------
  free energy    TOTEN  =    -92825.19729952 eV

  energy without entropy =   -92825.19729394  energy(sigma->0) =   -92825.19729673
  exchange ACFDT corr.  =         0.00000000  see jH, gK, PRB 81, 115126


--------------------------------------------------------------------------------------------------------




--------------------------------------- Iteration      1(   3)  ---------------------------------------


     EDDAV:  cpu time    1.9411: real time    2.2017
       DOS:  cpu time    0.0010: real time    0.0010
    --------------------------------------------
      LOOP:  cpu time    1.9420: real time    2.2027

 eigenvalue-minimisations  :   772
 total energy-change (2. order) :-0.3848543E+03  (-0.3798140E+03)
 number of electron     564.0000000 magnetization 
 augmentation part      564.0000000 magnetization 

 Free energy of the ion-electron system (eV)
  ---------------------------------------------------
  alpha Z        PSCENC =      1482.04539224
  Ewald energy   TEWEN  =    -31948.02366936
  -Hartree energ DENC   =    -16281.31536344
  -exchange      EXHF   =         0.00000000
  -V(xc)+E(xc)   XCENC  =      -734.38257952
  PAW double counting   =     43745.08136476  -132352.96792733
  entropy T*S    EENTRO =        -0.07035588
  eigenvalues    EBANDS =     -4258.79632225
  atomic energy  EATOM  =     47138.37786884
  Solvation  Ediel_sol  =         0.00000000
  ---------------------------------------------------
  free energy    TOTEN  =    -93210.05159194 eV

  energy without entropy =   -93209.98123606  energy(sigma->0) =   -93210.01641400
  exchange ACFDT corr.  =         0.00000000  see jH, gK, PRB 81, 115126


--------------------------------------------------------------------------------------------------------




--------------------------------------- Iteration      1(   4)  ---------------------------------------


     EDDAV:  cpu time    1.9655: real time    1.9774
       DOS:  cpu time    0.0009: real time    0.0009
    --------------------------------------------
      LOOP:  cpu time    1.9664: real time    1.9783

 eigenvalue-minimisations  :   832
 total energy-change (2. order) :-0.1945073E+02  (-0.1938927E+02)
 number of electron     564.0000000 magnetization 
 augmentation part      564.0000000 magnetization 

 Free energy of the ion-electron system (eV)
  ---------------------------------------------------
  alpha Z        PSCENC =      1482.04539224
  Ewald energy   TEWEN  =    -31948.02366936
  -Hartree energ DENC   =    -16281.31536344
  -exchange      EXHF   =         0.00000000
  -V(xc)+E(xc)   XCENC  =      -734.38257952
  PAW double counting   =     43745.08136476  -132352.96792733
  entropy T*S    EENTRO =        -0.07616084
  eigenvalues    EBANDS =     -4278.24124624
  atomic energy  EATOM  =     47138.37786884
  Solvation  Ediel_sol  =         0.00000000
  ---------------------------------------------------
  free energy    TOTEN  =    -93229.50232089 eV

  energy without entropy =   -93229.42616005  energy(sigma->0) =   -93229.46424047
  exchange ACFDT corr.  =         0.00000000  see jH, gK, PRB 81, 115126


--------------------------------------------------------------------------------------------------------




--------------------------------------- Iteration      1(   5)  ---------------------------------------


    POTLOK:  cpu time    0.2467: real time    0.2473
    SETDIJ:  cpu time    0.9177: real time    0.9180
     EDDAV:  cpu time   17.3656: real time   17.3996
       DOS:  cpu time    0.0010: real time    0.0010
    CHARGE:  cpu time    0.0764: real time    0.0777
    MIXING:  cpu time    0.0019: real time    0.0019
    --------------------------------------------
      LOOP:  cpu time   18.6094: real time   18.6455

 eigenvalue-minimisations  :   680
 total energy-change (2. order) : 0.9302945E+05  (-0.7766028E+02)
 number of electron     564.0000041 magnetization 
 augmentation part      142.2773304 magnetization 

 Free energy of the ion-electron system (eV)
  ---------------------------------------------------
  alpha Z        PSCENC =      1482.04539224
  Ewald energy   TEWEN  =    -31948.02366936
  -Hartree energ DENC   =    -16281.31536344
  -exchange      EXHF   =      1582.21558024
  -V(xc)+E(xc)   XCENC  =      -599.65024536
  PAW double counting   =     43590.36926174   -41748.31759969
  entropy T*S    EENTRO =        -0.07127892
  eigenvalues    EBANDS =     -3415.67812028
  atomic energy  EATOM  =     47138.37786884
  Solvation  Ediel_sol  =         0.00000000
  ---------------------------------------------------
  free energy    TOTEN  =      -200.04817400 eV

  energy without entropy =     -199.97689508  energy(sigma->0) =     -200.01253454
  exchange ACFDT corr.  =         0.00000000  see jH, gK, PRB 81, 115126


--------------------------------------------------------------------------------------------------------




--------------------------------------- Iteration      1(   6)  ---------------------------------------


    POTLOK:  cpu time    0.2445: real time    0.2468
    SETDIJ:  cpu time    0.9523: real time    0.9525
     EDDAV:  cpu time   18.7092: real time   18.8880
       DOS:  cpu time    0.0009: real time    0.0009
    CHARGE:  cpu time    0.0745: real time    0.0745
    MIXING:  cpu time    0.0011: real time    0.0011
    --------------------------------------------
      LOOP:  cpu time   19.9825: real time   20.1638

 eigenvalue-minimisations  :   768
 total energy-change (2. order) :-0.5753620E+01  (-0.6050575E+01)
 number of electron     564.0000065 magnetization 
 augmentation part      142.3419083 magnetization 

 Free energy of the ion-electron system (eV)
  ---------------------------------------------------
  alpha Z        PSCENC =      1482.04539224
  Ewald energy   TEWEN  =    -31948.02366936
  -Hartree energ DENC   =    -16307.75902478
  -exchange      EXHF   =      1522.64869421
  -V(xc)+E(xc)   XCENC  =      -597.20521527
  PAW double counting   =     73834.64474946   -71969.30199046
  entropy T*S    EENTRO =        -0.05230292
  eigenvalues    EBANDS =     -3361.17629590
  atomic energy  EATOM  =     47138.37786884
  Solvation  Ediel_sol  =         0.00000000
  ---------------------------------------------------
  free energy    TOTEN  =      -205.80179393 eV

  energy without entropy =     -205.74949101  energy(sigma->0) =     -205.77564247
  exchange ACFDT corr.  =         0.00000000  see jH, gK, PRB 81, 115126


--------------------------------------------------------------------------------------------------------




--------------------------------------- Iteration      1(   7)  ---------------------------------------


    POTLOK:  cpu time    0.2440: real time    0.2461
    SETDIJ:  cpu time    0.9267: real time    0.9270
     EDDAV:  cpu time   18.2814: real time   18.5143
       DOS:  cpu time    0.0009: real time    0.0009
    CHARGE:  cpu time    0.0740: real time    0.0740
    MIXING:  cpu time    0.0013: real time    0.0013
    --------------------------------------------
      LOOP:  cpu time   19.5283: real time   19.7636

 eigenvalue-minimisations  :   784
 total energy-change (2. order) : 0.1226189E+00  (-0.9417837E+00)
 number of electron     564.0000080 magnetization 
 augmentation part      143.5236582 magnetization 

 Free energy of the ion-electron system (eV)
  ---------------------------------------------------
  alpha Z        PSCENC =      1482.04539224
  Ewald energy   TEWEN  =    -31948.02366936
  -Hartree energ DENC   =    -16228.53162878
  -exchange      EXHF   =      1504.00123801
  -V(xc)+E(xc)   XCENC  =      -597.13258026
  PAW double counting   =     99840.87372877   -97960.88291033
  entropy T*S    EENTRO =        -0.01793513
  eigenvalues    EBANDS =     -3436.38867903
  atomic energy  EATOM  =     47138.37786884
  Solvation  Ediel_sol  =         0.00000000
  ---------------------------------------------------
  free energy    TOTEN  =      -205.67917503 eV

  energy without entropy =     -205.66123991  energy(sigma->0) =     -205.67020747
  exchange ACFDT corr.  =         0.00000000  see jH, gK, PRB 81, 115126


--------------------------------------------------------------------------------------------------------




--------------------------------------- Iteration      1(   8)  ---------------------------------------


    POTLOK:  cpu time    0.2446: real time    0.2467
    SETDIJ:  cpu time    0.9252: real time    0.9254
     EDDAV:  cpu time   17.8596: real time   18.0310
       DOS:  cpu time    0.0013: real time    0.0013
    CHARGE:  cpu time    0.0712: real time    0.0726
    MIXING:  cpu time    0.0012: real time    0.0012
    --------------------------------------------
      LOOP:  cpu time   19.1033: real time   19.2784

 eigenvalue-minimisations  :   756
 total energy-change (2. order) :-0.1598801E+00  (-0.1559447E+00)
 number of electron     564.0000088 magnetization 
 augmentation part      143.9981841 magnetization 

 Free energy of the ion-electron system (eV)
  ---------------------------------------------------
  alpha Z        PSCENC =      1482.04539224
  Ewald energy   TEWEN  =    -31948.02366936
  -Hartree energ DENC   =    -16194.97978858
  -exchange      EXHF   =      1500.50737696
  -V(xc)+E(xc)   XCENC  =      -596.81471162
  PAW double counting   =    118069.34294926  -116184.45615274
  entropy T*S    EENTRO =        -0.00368538
  eigenvalues    EBANDS =     -3471.83463477
  atomic energy  EATOM  =     47138.37786884
  Solvation  Ediel_sol  =         0.00000000
  ---------------------------------------------------
  free energy    TOTEN  =      -205.83905515 eV

  energy without entropy =     -205.83536977  energy(sigma->0) =     -205.83721246
  exchange ACFDT corr.  =         0.00000000  see jH, gK, PRB 81, 115126


--------------------------------------------------------------------------------------------------------




--------------------------------------- Iteration      1(   9)  ---------------------------------------


    POTLOK:  cpu time    0.2440: real time    0.2507
    SETDIJ:  cpu time    0.9125: real time    0.9181
     EDDAV:  cpu time   18.5769: real time   18.8063
       DOS:  cpu time    0.0118: real time    0.0118
    CHARGE:  cpu time    0.0784: real time    0.0784
    MIXING:  cpu time    0.0012: real time    0.0012
    --------------------------------------------
      LOOP:  cpu time   19.8246: real time   20.0663

 eigenvalue-minimisations  :   740
 total energy-change (2. order) : 0.8901043E-01  (-0.1167420E-01)
 number of electron     564.0000094 magnetization 
 augmentation part      144.0518490 magnetization 

 Free energy of the ion-electron system (eV)
  ---------------------------------------------------
  alpha Z        PSCENC =      1482.04539224
  Ewald energy   TEWEN  =    -31948.02366936
  -Hartree energ DENC   =    -16187.79705670
  -exchange      EXHF   =      1500.17719158
  -V(xc)+E(xc)   XCENC  =      -596.37508176
  PAW double counting   =    130617.19034370  -128730.96589838
  entropy T*S    EENTRO =        -0.00371482
  eigenvalues    EBANDS =     -3480.37542005
  atomic energy  EATOM  =     47138.37786884
  Solvation  Ediel_sol  =         0.00000000
  ---------------------------------------------------
  free energy    TOTEN  =      -205.75004471 eV

  energy without entropy =     -205.74632989  energy(sigma->0) =     -205.74818730
  exchange ACFDT corr.  =         0.00000000  see jH, gK, PRB 81, 115126


--------------------------------------------------------------------------------------------------------




--------------------------------------- Iteration      1(  10)  ---------------------------------------


    POTLOK:  cpu time    0.2549: real time    0.2573
    SETDIJ:  cpu time    0.9297: real time    0.9299
     EDDAV:  cpu time   17.9627: real time   18.2559
       DOS:  cpu time    0.0009: real time    0.0009
    CHARGE:  cpu time    0.0729: real time    0.0729
    MIXING:  cpu time    0.0013: real time    0.0013
    --------------------------------------------
      LOOP:  cpu time   19.2224: real time   19.5182

 eigenvalue-minimisations  :   716
 total energy-change (2. order) : 0.4642678E-01  (-0.5966015E-02)
 number of electron     564.0000097 magnetization 
 augmentation part      143.9739481 magnetization 

 Free energy of the ion-electron system (eV)
  ---------------------------------------------------
  alpha Z        PSCENC =      1482.04539224
  Ewald energy   TEWEN  =    -31948.02366936
  -Hartree energ DENC   =    -16186.00998789
  -exchange      EXHF   =      1500.29340156
  -V(xc)+E(xc)   XCENC  =      -596.03646740
  PAW double counting   =    138523.24574611  -136636.46669302
  entropy T*S    EENTRO =        -0.00563909
  eigenvalues    EBANDS =     -3483.12356992
  atomic energy  EATOM  =     47138.37786884
  Solvation  Ediel_sol  =         0.00000000
  ---------------------------------------------------
  free energy    TOTEN  =      -205.70361793 eV

  energy without entropy =     -205.69797884  energy(sigma->0) =     -205.70079839
  exchange ACFDT corr.  =         0.00000000  see jH, gK, PRB 81, 115126


--------------------------------------------------------------------------------------------------------




--------------------------------------- Iteration      1(  11)  ---------------------------------------


    POTLOK:  cpu time    0.2436: real time    0.2457
    SETDIJ:  cpu time    0.9130: real time    0.9133
     EDDAV:  cpu time   17.5888: real time   17.7756
       DOS:  cpu time    0.0008: real time    0.0008
    CHARGE:  cpu time    0.0729: real time    0.0729
    MIXING:  cpu time    0.0013: real time    0.0013
    --------------------------------------------
      LOOP:  cpu time   18.8204: real time   19.0096

 eigenvalue-minimisations  :   732
 total energy-change (2. order) : 0.9161543E-02  (-0.3952384E-02)
 number of electron     564.0000099 magnetization 
 augmentation part      143.9054485 magnetization 

 Free energy of the ion-electron system (eV)
  ---------------------------------------------------
  alpha Z        PSCENC =      1482.04539224
  Ewald energy   TEWEN  =    -31948.02366936
  -Hartree energ DENC   =    -16184.71247163
  -exchange      EXHF   =      1500.49216360
  -V(xc)+E(xc)   XCENC  =      -595.82409088
  PAW double counting   =    143304.44341671  -141417.24383251
  entropy T*S    EENTRO =        -0.00645878
  eigenvalues    EBANDS =     -3485.24277463
  atomic energy  EATOM  =     47138.37786884
  Solvation  Ediel_sol  =         0.00000000
  ---------------------------------------------------
  free energy    TOTEN  =      -205.69445639 eV

  energy without entropy =     -205.68799761  energy(sigma->0) =     -205.69122700
  exchange ACFDT corr.  =         0.00000000  see jH, gK, PRB 81, 115126


--------------------------------------------------------------------------------------------------------




--------------------------------------- Iteration      1(  12)  ---------------------------------------


    POTLOK:  cpu time    0.2449: real time    0.2473
    SETDIJ:  cpu time    0.9127: real time    0.9129
     EDDAV:  cpu time   17.9313: real time   18.2029
       DOS:  cpu time    0.0009: real time    0.0009
    CHARGE:  cpu time    0.0721: real time    0.0721
    MIXING:  cpu time    0.0012: real time    0.0012
    --------------------------------------------
      LOOP:  cpu time   19.1630: real time   19.4373

 eigenvalue-minimisations  :   796
 total energy-change (2. order) : 0.3352502E-02  (-0.2281286E-02)
 number of electron     564.0000100 magnetization 
 augmentation part      143.8692721 magnetization 

 Free energy of the ion-electron system (eV)
  ---------------------------------------------------
  alpha Z        PSCENC =      1482.04539224
  Ewald energy   TEWEN  =    -31948.02366936
  -Hartree energ DENC   =    -16183.88781293
  -exchange      EXHF   =      1500.66164319
  -V(xc)+E(xc)   XCENC  =      -595.69697997
  PAW double counting   =    146172.14410456  -144284.63185723
  entropy T*S    EENTRO =        -0.00603599
  eigenvalues    EBANDS =     -3486.67375722
  atomic energy  EATOM  =     47138.37786884
  Solvation  Ediel_sol  =         0.00000000
  ---------------------------------------------------
  free energy    TOTEN  =      -205.69110388 eV

  energy without entropy =     -205.68506789  energy(sigma->0) =     -205.68808589
  exchange ACFDT corr.  =         0.00000000  see jH, gK, PRB 81, 115126


--------------------------------------------------------------------------------------------------------




--------------------------------------- Iteration      1(  13)  ---------------------------------------


    POTLOK:  cpu time    0.2434: real time    0.2461
    SETDIJ:  cpu time    0.9142: real time    0.9145
     EDDAV:  cpu time   17.4277: real time   17.4446
       DOS:  cpu time    0.0010: real time    0.0010
    CHARGE:  cpu time    0.0721: real time    0.0721
    MIXING:  cpu time    0.0012: real time    0.0012
    --------------------------------------------
      LOOP:  cpu time   18.6597: real time   18.6795

 eigenvalue-minimisations  :   708
 total energy-change (2. order) :-0.2278250E-03  (-0.1391995E-02)
 number of electron     564.0000100 magnetization 
 augmentation part      143.8548861 magnetization 

 Free energy of the ion-electron system (eV)
  ---------------------------------------------------
  alpha Z        PSCENC =      1482.04539224
  Ewald energy   TEWEN  =    -31948.02366936
  -Hartree energ DENC   =    -16183.58264974
  -exchange      EXHF   =      1500.76132750
  -V(xc)+E(xc)   XCENC  =      -595.61981227
  PAW double counting   =    147857.29842496  -145969.57578164
  entropy T*S    EENTRO =        -0.00531491
  eigenvalues    EBANDS =     -3487.36711732
  atomic energy  EATOM  =     47138.37786884
  Solvation  Ediel_sol  =         0.00000000
  ---------------------------------------------------
  free energy    TOTEN  =      -205.69133171 eV

  energy without entropy =     -205.68601680  energy(sigma->0) =     -205.68867425
  exchange ACFDT corr.  =         0.00000000  see jH, gK, PRB 81, 115126


--------------------------------------------------------------------------------------------------------




--------------------------------------- Iteration      1(  14)  ---------------------------------------


    POTLOK:  cpu time    0.2469: real time    0.2490
    SETDIJ:  cpu time    0.9144: real time    0.9146
     EDDAV:  cpu time   18.7996: real time   19.1495
       DOS:  cpu time    0.0013: real time    0.0013
    CHARGE:  cpu time    0.0790: real time    0.0790
    MIXING:  cpu time    0.0011: real time    0.0011
    --------------------------------------------
      LOOP:  cpu time   20.0423: real time   20.3946

 eigenvalue-minimisations  :   772
 total energy-change (2. order) :-0.5777437E-03  (-0.5657246E-03)
 number of electron     564.0000101 magnetization 
 augmentation part      143.8487422 magnetization 

 Free energy of the ion-electron system (eV)
  ---------------------------------------------------
  alpha Z        PSCENC =      1482.04539224
  Ewald energy   TEWEN  =    -31948.02366936
  -Hartree energ DENC   =    -16183.65567051
  -exchange      EXHF   =      1500.80410289
  -V(xc)+E(xc)   XCENC  =      -595.57124443
  PAW double counting   =    148829.49912646  -146941.65017827
  entropy T*S    EENTRO =        -0.00491881
  eigenvalues    EBANDS =     -3487.51271850
  atomic energy  EATOM  =     47138.37786884
  Solvation  Ediel_sol  =         0.00000000
  ---------------------------------------------------
  free energy    TOTEN  =      -205.69190945 eV

  energy without entropy =     -205.68699064  energy(sigma->0) =     -205.68945005
  exchange ACFDT corr.  =         0.00000000  see jH, gK, PRB 81, 115126


--------------------------------------------------------------------------------------------------------




--------------------------------------- Iteration      1(  15)  ---------------------------------------


    POTLOK:  cpu time    0.3087: real time    0.3110
    SETDIJ:  cpu time    0.9227: real time    0.9230
     EDDAV:  cpu time   17.8037: real time   18.1597
       DOS:  cpu time    0.0008: real time    0.0008
    CHARGE:  cpu time    0.0729: real time    0.0729
    MIXING:  cpu time    0.0012: real time    0.0012
    --------------------------------------------
      LOOP:  cpu time   19.1101: real time   19.4686

 eigenvalue-minimisations  :   740
 total energy-change (2. order) : 0.2084612E-03  (-0.2131854E-03)
 number of electron     564.0000101 magnetization 
 augmentation part      143.8459343 magnetization 

 Free energy of the ion-electron system (eV)
  ---------------------------------------------------
  alpha Z        PSCENC =      1482.04539224
  Ewald energy   TEWEN  =    -31948.02366936
  -Hartree energ DENC   =    -16183.82314641
  -exchange      EXHF   =      1500.80772579
  -V(xc)+E(xc)   XCENC  =      -595.54152941
  PAW double counting   =    149412.67332979  -147524.74958249
  entropy T*S    EENTRO =        -0.00486530
  eigenvalues    EBANDS =     -3487.45322468
  atomic energy  EATOM  =     47138.37786884
  Solvation  Ediel_sol  =         0.00000000
  ---------------------------------------------------
  free energy    TOTEN  =      -205.69170099 eV

  energy without entropy =     -205.68683569  energy(sigma->0) =     -205.68926834
  exchange ACFDT corr.  =         0.00000000  see jH, gK, PRB 81, 115126


--------------------------------------------------------------------------------------------------------




--------------------------------------- Iteration      1(  16)  ---------------------------------------


    POTLOK:  cpu time    0.2610: real time    0.2694
    SETDIJ:  cpu time    0.9204: real time    0.9213
     EDDAV:  cpu time   18.5039: real time   18.9103
       DOS:  cpu time    0.0009: real time    0.0010
    CHARGE:  cpu time    0.0731: real time    0.0731
    MIXING:  cpu time    0.0015: real time    0.0015
    --------------------------------------------
      LOOP:  cpu time   19.7608: real time   20.1766

 eigenvalue-minimisations  :   724
 total energy-change (2. order) : 0.1776885E-03  (-0.1040081E-03)
 number of electron     564.0000101 magnetization 
 augmentation part      143.8442725 magnetization 

 Free energy of the ion-electron system (eV)
  ---------------------------------------------------
  alpha Z        PSCENC =      1482.04539224
  Ewald energy   TEWEN  =    -31948.02366936
  -Hartree energ DENC   =    -16183.94815611
  -exchange      EXHF   =      1500.80153294
  -V(xc)+E(xc)   XCENC  =      -595.52342834
  PAW double counting   =    149759.41923829  -147871.45208808
  entropy T*S    EENTRO =        -0.00496942
  eigenvalues    EBANDS =     -3487.38324431
  atomic energy  EATOM  =     47138.37786884
  Solvation  Ediel_sol  =         0.00000000
  ---------------------------------------------------
  free energy    TOTEN  =      -205.69152330 eV

  energy without entropy =     -205.68655389  energy(sigma->0) =     -205.68903859
  exchange ACFDT corr.  =         0.00000000  see jH, gK, PRB 81, 115126


--------------------------------------------------------------------------------------------------------




--------------------------------------- Iteration      1(  17)  ---------------------------------------


    POTLOK:  cpu time    0.2451: real time    0.2473
    SETDIJ:  cpu time    0.9145: real time    0.9147
     EDDAV:  cpu time   17.9293: real time   17.9826
       DOS:  cpu time    0.0008: real time    0.0008
    CHARGE:  cpu time    0.0732: real time    0.0732
    MIXING:  cpu time    0.0013: real time    0.0013
    --------------------------------------------
      LOOP:  cpu time   19.1643: real time   19.2200

 eigenvalue-minimisations  :   732
 total energy-change (2. order) : 0.8082196E-04  (-0.3465897E-04)
 number of electron     564.0000101 magnetization 
 augmentation part      143.8430807 magnetization 

 Free energy of the ion-electron system (eV)
  ---------------------------------------------------
  alpha Z        PSCENC =      1482.04539224
  Ewald energy   TEWEN  =    -31948.02366936
  -Hartree energ DENC   =    -16184.01898276
  -exchange      EXHF   =      1500.79477772
  -V(xc)+E(xc)   XCENC  =      -595.51247147
  PAW double counting   =    149965.69368810  -148077.70227021
  entropy T*S    EENTRO =        -0.00506328
  eigenvalues    EBANDS =     -3487.34071230
  atomic energy  EATOM  =     47138.37786884
  Solvation  Ediel_sol  =         0.00000000
  ---------------------------------------------------
  free energy    TOTEN  =      -205.69144248 eV

  energy without entropy =     -205.68637920  energy(sigma->0) =     -205.68891084
  exchange ACFDT corr.  =         0.00000000  see jH, gK, PRB 81, 115126


--------------------------------------------------------------------------------------------------------




--------------------------------------- Iteration      1(  18)  ---------------------------------------


    POTLOK:  cpu time    0.2455: real time    0.2479
    SETDIJ:  cpu time    0.9231: real time    0.9268
     EDDAV:  cpu time   18.5631: real time   18.8333
       DOS:  cpu time    0.0015: real time    0.0015
    CHARGE:  cpu time    0.0765: real time    0.0765
    MIXING:  cpu time    0.0012: real time    0.0012
    --------------------------------------------
      LOOP:  cpu time   19.8109: real time   20.0872

 eigenvalue-minimisations  :   676
 total energy-change (2. order) : 0.6918774E-04  (-0.1062190E-04)
 number of electron     564.0000101 magnetization 
 augmentation part      143.8424642 magnetization 

 Free energy of the ion-electron system (eV)
  ---------------------------------------------------
  alpha Z        PSCENC =      1482.04539224
  Ewald energy   TEWEN  =    -31948.02366936
  -Hartree energ DENC   =    -16184.05979353
  -exchange      EXHF   =      1500.79126320
  -V(xc)+E(xc)   XCENC  =      -595.50577096
  PAW double counting   =    150089.30714429  -148201.30272385
  entropy T*S    EENTRO =        -0.00509143
  eigenvalues    EBANDS =     -3487.31599275
  atomic energy  EATOM  =     47138.37786884
  Solvation  Ediel_sol  =         0.00000000
  ---------------------------------------------------
  free energy    TOTEN  =      -205.69137329 eV

  energy without entropy =     -205.68628187  energy(sigma->0) =     -205.68882758
  exchange ACFDT corr.  =         0.00000000  see jH, gK, PRB 81, 115126


--------------------------------------------------------------------------------------------------------




--------------------------------------- Iteration      1(  19)  ---------------------------------------


    POTLOK:  cpu time    0.2639: real time    0.2662
    SETDIJ:  cpu time    0.9221: real time    0.9226
     EDDAV:  cpu time   17.1664: real time   17.2990
       DOS:  cpu time    0.0008: real time    0.0008
    CHARGE:  cpu time    0.0735: real time    0.0735
    MIXING:  cpu time    0.0012: real time    0.0012
    --------------------------------------------
      LOOP:  cpu time   18.4279: real time   18.5632

 eigenvalue-minimisations  :   628
 total energy-change (2. order) :-0.2902816E-06  (-0.1533157E-04)
 number of electron     564.0000101 magnetization 
 augmentation part      143.8419659 magnetization 

 Free energy of the ion-electron system (eV)
  ---------------------------------------------------
  alpha Z        PSCENC =      1482.04539224
  Ewald energy   TEWEN  =    -31948.02366936
  -Hartree energ DENC   =    -16184.09272885
  -exchange      EXHF   =      1500.79005602
  -V(xc)+E(xc)   XCENC  =      -595.50152748
  PAW double counting   =    150162.48346914  -148274.47258034
  entropy T*S    EENTRO =        -0.00507524
  eigenvalues    EBANDS =     -3487.29257855
  atomic energy  EATOM  =     47138.37786884
  Solvation  Ediel_sol  =         0.00000000
  ---------------------------------------------------
  free energy    TOTEN  =      -205.69137358 eV

  energy without entropy =     -205.68629835  energy(sigma->0) =     -205.68883597
  exchange ACFDT corr.  =         0.00000000  see jH, gK, PRB 81, 115126


--------------------------------------------------------------------------------------------------------




--------------------------------------- Iteration      1(  20)  ---------------------------------------


    POTLOK:  cpu time    0.2441: real time    0.2464
    SETDIJ:  cpu time    0.9136: real time    0.9145
     EDDAV:  cpu time   17.4277: real time   17.4495
       DOS:  cpu time    0.0009: real time    0.0009
    CHARGE:  cpu time    0.0735: real time    0.0735
    MIXING:  cpu time    0.0011: real time    0.0011
    --------------------------------------------
      LOOP:  cpu time   18.6610: real time   18.6859

 eigenvalue-minimisations  :   580
 total energy-change (2. order) :-0.4634677E-04  (-0.2240791E-04)
 number of electron     564.0000101 magnetization 
 augmentation part      143.8417352 magnetization 

 Free energy of the ion-electron system (eV)
  ---------------------------------------------------
  alpha Z        PSCENC =      1482.04539224
  Ewald energy   TEWEN  =    -31948.02366936
  -Hartree energ DENC   =    -16184.12641936
  -exchange      EXHF   =      1500.78999093
  -V(xc)+E(xc)   XCENC  =      -595.49882104
  PAW double counting   =    150205.73757585  -148317.72368609
  entropy T*S    EENTRO =        -0.00505829
  eigenvalues    EBANDS =     -3487.26459366
  atomic energy  EATOM  =     47138.37786884
  Solvation  Ediel_sol  =         0.00000000
  ---------------------------------------------------
  free energy    TOTEN  =      -205.69141993 eV

  energy without entropy =     -205.68636164  energy(sigma->0) =     -205.68889079
  exchange ACFDT corr.  =         0.00000000  see jH, gK, PRB 81, 115126


--------------------------------------------------------------------------------------------------------




--------------------------------------- Iteration      1(  21)  ---------------------------------------


    POTLOK:  cpu time    0.2439: real time    0.2462
    SETDIJ:  cpu time    0.9161: real time    0.9164
     EDDAV:  cpu time   17.8189: real time   17.9993
       DOS:  cpu time    0.0009: real time    0.0009
    CHARGE:  cpu time    0.0734: real time    0.0735
    MIXING:  cpu time    0.0114: real time    0.0114
    --------------------------------------------
      LOOP:  cpu time   19.0646: real time   19.2476

 eigenvalue-minimisations  :   532
 total energy-change (2. order) :-0.3829860E-04  (-0.2472315E-04)
 number of electron     564.0000101 magnetization 
 augmentation part      143.8415882 magnetization 

 Free energy of the ion-electron system (eV)
  ---------------------------------------------------
  alpha Z        PSCENC =      1482.04539224
  Ewald energy   TEWEN  =    -31948.02366936
  -Hartree energ DENC   =    -16184.15661195
  -exchange      EXHF   =      1500.79021258
  -V(xc)+E(xc)   XCENC  =      -595.49703613
  PAW double counting   =    150230.87590641  -148342.86064686
  entropy T*S    EENTRO =        -0.00506517
  eigenvalues    EBANDS =     -3487.23780883
  atomic energy  EATOM  =     47138.37786884
  Solvation  Ediel_sol  =         0.00000000
  ---------------------------------------------------
  free energy    TOTEN  =      -205.69145823 eV

  energy without entropy =     -205.68639306  energy(sigma->0) =     -205.68892565
  exchange ACFDT corr.  =         0.00000000  see jH, gK, PRB 81, 115126


--------------------------------------------------------------------------------------------------------




--------------------------------------- Iteration      1(  22)  ---------------------------------------


    POTLOK:  cpu time    0.2454: real time    0.2479
    SETDIJ:  cpu time    0.9162: real time    0.9164
     EDDAV:  cpu time   17.3859: real time   17.6127
       DOS:  cpu time    0.0009: real time    0.0009
    CHARGE:  cpu time    0.0737: real time    0.0737
    MIXING:  cpu time    0.0012: real time    0.0012
    --------------------------------------------
      LOOP:  cpu time   18.6233: real time   18.8528

 eigenvalue-minimisations  :   564
 total energy-change (2. order) :-0.2172387E-04  (-0.2085781E-04)
 number of electron     564.0000101 magnetization 
 augmentation part      143.8414186 magnetization 

 Free energy of the ion-electron system (eV)
  ---------------------------------------------------
  alpha Z        PSCENC =      1482.04539224
  Ewald energy   TEWEN  =    -31948.02366936
  -Hartree energ DENC   =    -16184.17836398
  -exchange      EXHF   =      1500.79012792
  -V(xc)+E(xc)   XCENC  =      -595.49586366
  PAW double counting   =    150245.54889289  -148357.53292153
  entropy T*S    EENTRO =        -0.00509607
  eigenvalues    EBANDS =     -3487.21784724
  atomic energy  EATOM  =     47138.37786884
  Solvation  Ediel_sol  =         0.00000000
  ---------------------------------------------------
  free energy    TOTEN  =      -205.69147995 eV

  energy without entropy =     -205.68638388  energy(sigma->0) =     -205.68893192
  exchange ACFDT corr.  =         0.00000000  see jH, gK, PRB 81, 115126


--------------------------------------------------------------------------------------------------------




--------------------------------------- Iteration      1(  23)  ---------------------------------------


    POTLOK:  cpu time    0.2455: real time    0.2481
    SETDIJ:  cpu time    0.9160: real time    0.9164
     EDDAV:  cpu time   18.7152: real time   18.9436
       DOS:  cpu time    0.0009: real time    0.0009
    CHARGE:  cpu time    0.0725: real time    0.0739
    MIXING:  cpu time    0.0019: real time    0.0019
    --------------------------------------------
      LOOP:  cpu time   19.9520: real time   20.1848

 eigenvalue-minimisations  :   564
 total energy-change (2. order) :-0.1064799E-04  (-0.1324725E-04)
 number of electron     564.0000101 magnetization 
 augmentation part      143.8412412 magnetization 

 Free energy of the ion-electron system (eV)
  ---------------------------------------------------
  alpha Z        PSCENC =      1482.04539224
  Ewald energy   TEWEN  =    -31948.02366936
  -Hartree energ DENC   =    -16184.18988327
  -exchange      EXHF   =      1500.78971918
  -V(xc)+E(xc)   XCENC  =      -595.49513904
  PAW double counting   =    150254.23068371  -148366.21429451
  entropy T*S    EENTRO =        -0.00513262
  eigenvalues    EBANDS =     -3487.20703578
  atomic energy  EATOM  =     47138.37786884
  Solvation  Ediel_sol  =         0.00000000
  ---------------------------------------------------
  free energy    TOTEN  =      -205.69149060 eV

  energy without entropy =     -205.68635798  energy(sigma->0) =     -205.68892429
  exchange ACFDT corr.  =         0.00000000  see jH, gK, PRB 81, 115126


--------------------------------------------------------------------------------------------------------




--------------------------------------- Iteration      1(  24)  ---------------------------------------


    POTLOK:  cpu time    0.2524: real time    0.2537
    SETDIJ:  cpu time    0.9185: real time    0.9314
     EDDAV:  cpu time   18.3522: real time   18.7424
       DOS:  cpu time    0.0063: real time    0.0063
    CHARGE:  cpu time    0.0772: real time    0.0773
    MIXING:  cpu time    0.0012: real time    0.0012
[...]
     0.000000000  0.000000000 13.086768000     0.000000000  0.000000000  0.076413061

  length of vectors
    13.086768000 13.086768000 13.086768000     0.076413061  0.076413061  0.076413061


 FORCES acting on ions
    electron-ion (+dipol)            ewald-force                    non-local-force                 convergence-correction
 -----------------------------------------------------------------------------------------------
   -.369E+00 0.127E+00 -.294E+01   0.365E+00 -.142E+00 0.292E+01   0.204E-01 -.199E-02 0.654E-02   0.414E-03 0.268E-04 0.220E-02
   -.281E+00 -.549E+00 0.740E+00   0.292E+00 0.545E+00 -.744E+00   0.595E-02 -.610E-02 -.221E-01   0.972E-03 -.241E-02 0.427E-02
   -.385E+00 -.102E+01 -.420E+00   0.383E+00 0.102E+01 0.461E+00   0.366E-01 -.386E-01 -.704E-01   -.154E-02 -.883E-03 0.536E-03
   0.709E+00 0.110E+00 0.121E+01   -.704E+00 -.118E+00 -.121E+01   0.865E-02 -.559E-02 -.292E-01   -.165E-02 -.117E-02 -.175E-02
   0.528E+00 0.767E+00 -.711E+00   -.524E+00 -.754E+00 0.758E+00   0.156E-01 -.408E-01 -.498E-01   -.125E-02 0.173E-02 0.163E-02
   0.521E+00 -.331E+00 0.251E+01   -.520E+00 0.340E+00 -.236E+01   0.557E-02 -.302E-01 -.159E+00   0.183E-02 -.199E-02 0.101E-02
   -.751E-01 -.251E+00 -.829E+00   0.503E-01 0.269E+00 0.893E+00   0.426E-01 -.358E-01 -.818E-01   0.394E-02 0.880E-03 0.132E-03
   -.133E+02 0.281E+02 0.286E+02   0.123E+02 -.291E+02 -.295E+02   0.955E+00 0.984E+00 0.904E+00   0.247E-02 0.407E-02 0.798E-03
   0.854E+01 0.299E+02 -.299E+02   -.772E+01 -.308E+02 0.308E+02   -.797E+00 0.858E+00 -.843E+00   -.310E-02 0.855E-03 0.118E-02
   0.126E+02 -.279E+02 0.290E+02   -.117E+02 0.289E+02 -.300E+02   -.909E+00 -.956E+00 0.934E+00   -.240E-02 -.372E-02 -.191E-02
   -.931E+01 -.305E+02 -.290E+02   0.846E+01 0.314E+02 0.299E+02   0.805E+00 -.798E+00 -.860E+00   -.260E-03 0.201E-02 0.269E-02
   0.606E+01 0.780E+01 0.812E+01   -.611E+01 -.791E+01 -.818E+01   0.384E-01 0.917E-01 0.391E-01   -.163E-02 -.423E-03 0.183E-02
   -.332E+01 0.682E+01 -.730E+01   0.340E+01 -.700E+01 0.753E+01   -.768E-01 0.160E+00 -.217E+00   0.911E-03 -.111E-02 -.648E-03
   -.513E+01 -.720E+01 0.791E+01   0.515E+01 0.733E+01 -.798E+01   -.112E-01 -.127E+00 0.562E-01   -.572E-03 0.190E-02 -.172E-02
   0.431E+01 -.689E+01 -.728E+01   -.439E+01 0.707E+01 0.750E+01   0.888E-01 -.205E+00 -.204E+00   0.165E-02 -.337E-03 0.462E-03
   0.268E+02 -.859E+01 0.313E+02   -.278E+02 0.796E+01 -.321E+02   0.902E+00 0.572E+00 0.827E+00   0.513E-02 -.164E-02 -.259E-02
   0.287E+02 0.569E+01 -.323E+02   -.295E+02 -.516E+01 0.331E+02   0.752E+00 -.497E+00 -.772E+00   0.381E-03 -.239E-02 0.566E-03
   0.555E+01 0.643E+01 0.727E+01   -.573E+01 -.643E+01 -.732E+01   0.170E+00 0.402E-02 0.307E-01   -.205E-03 0.843E-03 -.719E-03
   0.454E+01 -.509E+01 -.671E+01   -.478E+01 0.515E+01 0.687E+01   0.236E+00 -.795E-01 -.160E+00   -.981E-03 0.311E-02 0.194E-02
   -.270E+02 0.953E+01 0.318E+02   0.280E+02 -.887E+01 -.326E+02   -.925E+00 -.606E+00 0.779E+00   -.155E-02 -.759E-04 -.123E-02
   -.298E+02 -.535E+01 -.327E+02   0.306E+02 0.481E+01 0.335E+02   -.805E+00 0.517E+00 -.790E+00   -.220E-02 0.175E-02 -.435E-03
   -.557E+01 -.709E+01 0.674E+01   0.574E+01 0.712E+01 -.677E+01   -.144E+00 -.587E-01 0.820E-02   0.389E-02 0.943E-04 -.360E-03
   -.454E+01 0.387E+01 -.628E+01   0.478E+01 -.395E+01 0.647E+01   -.200E+00 0.450E-01 -.200E+00   -.176E-03 0.148E-02 0.124E-02
   0.297E+02 0.331E+02 -.442E+01   -.305E+02 -.338E+02 0.404E+01   0.725E+00 0.708E+00 0.344E+00   0.496E-03 0.579E-03 -.179E-02
   0.511E+01 0.648E+01 0.444E+01   -.533E+01 -.659E+01 -.447E+01   0.215E+00 0.936E-01 0.219E-01   0.194E-02 0.831E-03 -.398E-03
   0.271E+02 -.313E+02 0.104E+02   -.280E+02 0.322E+02 -.960E+01   0.910E+00 -.874E+00 -.728E+00   -.382E-04 0.199E-03 0.145E-02
   0.522E+01 -.620E+01 -.745E+01   -.543E+01 0.631E+01 0.750E+01   0.225E+00 -.143E+00 -.710E-01   0.243E-02 -.202E-02 0.751E-03
   -.268E+02 0.304E+02 0.110E+02   0.278E+02 -.314E+02 -.102E+02   -.957E+00 0.939E+00 -.770E+00   0.200E-02 -.240E-02 0.435E-03
   -.533E+01 0.604E+01 -.628E+01   0.551E+01 -.615E+01 0.637E+01   -.159E+00 0.824E-01 -.838E-01   -.406E-02 0.130E-02 0.212E-02
   -.280E+02 -.321E+02 -.418E+01   0.288E+02 0.328E+02 0.382E+01   -.768E+00 -.671E+00 0.341E+00   -.211E-02 0.101E-02 0.840E-03
   -.546E+01 -.649E+01 0.459E+01   0.565E+01 0.662E+01 -.461E+01   -.151E+00 -.125E+00 -.148E-01   -.451E-02 -.406E-02 0.155E-02
   0.151E+01 -.139E+01 0.137E+02   -.159E+01 0.153E+01 -.142E+02   0.852E-01 -.139E+00 0.504E+00   -.543E-03 0.830E-03 -.618E-03
   0.633E+02 0.649E+02 -.653E+02   -.661E+02 -.684E+02 0.689E+02   0.256E+01 0.317E+01 -.328E+01   -.761E-04 0.525E-03 0.648E-03
   0.691E+01 -.132E+01 0.173E+01   -.703E+01 0.148E+01 -.192E+01   0.111E+00 -.152E+00 0.171E+00   -.242E-03 -.916E-03 -.976E-03
   0.683E+00 -.138E+02 0.538E+00   -.677E+00 0.142E+02 -.612E+00   -.126E-01 -.421E+00 0.681E-01   0.143E-02 0.620E-03 0.100E-02
   -.134E+01 0.647E+01 0.295E+01   0.148E+01 -.675E+01 -.318E+01   -.137E+00 0.264E+00 0.213E+00   -.149E-02 0.476E-03 -.605E-03
   -.145E+02 0.176E+01 -.300E+01   0.150E+02 -.176E+01 0.320E+01   -.469E+00 0.106E-01 -.183E+00   -.148E-02 -.120E-02 -.270E-04
   -.248E+01 -.334E+01 0.223E+01   0.250E+01 0.342E+01 -.236E+01   -.178E-01 -.734E-01 0.117E+00   0.172E-03 0.737E-03 0.218E-02
   -.300E+01 -.406E+01 -.568E+01   0.318E+01 0.430E+01 0.590E+01   -.172E+00 -.219E+00 -.209E+00   -.252E-03 -.216E-04 -.693E-03
   0.202E+01 0.139E+02 -.691E+00   -.216E+01 -.143E+02 0.868E+00   0.125E+00 0.403E+00 -.163E+00   -.143E-02 0.125E-02 -.602E-03
   0.539E+01 0.267E+01 -.273E+01   -.545E+01 -.282E+01 0.287E+01   0.516E-01 0.133E+00 -.129E+00   -.179E-02 0.241E-03 0.656E-04
   0.658E+02 -.676E+02 0.677E+02   -.691E+02 0.719E+02 -.717E+02   0.312E+01 -.390E+01 0.374E+01   0.702E-03 -.117E-02 -.166E-02
   0.258E+01 0.664E+00 -.138E+02   -.264E+01 -.832E+00 0.141E+02   0.548E-01 0.155E+00 -.322E+00   0.118E-03 0.147E-02 0.158E-02
   -.136E+01 0.268E+01 0.578E+01   0.149E+01 -.293E+01 -.599E+01   -.121E+00 0.224E+00 0.208E+00   -.121E-02 0.983E-03 -.422E-03
   -.140E+01 0.206E+01 -.410E+01   0.143E+01 -.216E+01 0.420E+01   -.283E-01 0.878E-01 -.965E-01   -.129E-02 -.925E-03 0.163E-03
   -.137E+02 -.306E+01 0.181E+01   0.141E+02 0.323E+01 -.179E+01   -.371E+00 -.147E+00 -.192E-01   -.145E-02 -.414E-03 -.865E-03
   -.372E+01 -.537E+01 -.525E+01   0.391E+01 0.558E+01 0.557E+01   -.184E+00 -.186E+00 -.292E+00   -.693E-04 -.766E-03 0.658E-03
   0.131E+02 0.331E+01 0.249E+01   -.134E+02 -.352E+01 -.251E+01   0.328E+00 0.206E+00 0.180E-01   0.139E-02 -.162E-02 -.209E-03
   0.347E+01 0.530E+01 -.415E+01   -.360E+01 -.554E+01 0.438E+01   0.124E+00 0.224E+00 -.215E+00   0.294E-02 -.610E-04 0.149E-03
   0.206E+01 -.362E+01 0.747E+01   -.221E+01 0.392E+01 -.785E+01   0.147E+00 -.274E+00 0.355E+00   -.213E-03 0.960E-03 -.485E-04
   0.249E+01 -.225E+01 -.422E+01   -.252E+01 0.227E+01 0.432E+01   0.310E-01 -.102E-01 -.917E-01   0.107E-02 0.127E-02 0.554E-03
   -.664E+02 0.683E+02 0.682E+02   0.698E+02 -.725E+02 -.722E+02   -.312E+01 0.386E+01 0.375E+01   -.155E-02 0.516E-04 -.211E-02
   -.272E+01 0.170E+01 -.138E+02   0.280E+01 -.170E+01 0.142E+02   -.751E-01 0.493E-02 -.316E+00   -.190E-03 -.103E-03 0.252E-02
   -.336E+01 -.132E+02 -.720E+00   0.355E+01 0.136E+02 0.865E+00   -.176E+00 -.365E+00 -.143E+00   0.540E-03 -.104E-02 0.137E-02
   -.572E+01 -.261E+01 -.204E+01   0.582E+01 0.273E+01 0.214E+01   -.938E-01 -.104E+00 -.897E-01   -.157E-02 -.879E-03 -.581E-03
   0.313E+01 0.210E+01 0.226E+01   -.315E+01 -.212E+01 -.239E+01   0.199E-01 0.191E-01 0.114E+00   0.124E-02 -.850E-03 -.147E-02
   0.313E+01 0.506E+01 -.637E+01   -.327E+01 -.543E+01 0.665E+01   0.132E+00 0.352E+00 -.262E+00   0.130E-02 -.103E-02 0.109E-02
   0.218E+01 -.684E+01 0.312E+01   -.237E+01 0.713E+01 -.341E+01   0.177E+00 -.260E+00 0.269E+00   0.114E-02 0.727E-03 -.132E-02
   0.139E+02 -.174E+01 -.236E+01   -.143E+02 0.178E+01 0.247E+01   0.416E+00 -.326E-01 -.101E+00   0.173E-02 0.866E-03 0.177E-02
   -.622E+01 0.105E+01 0.388E+00   0.632E+01 -.120E+01 -.456E+00   -.926E-01 0.140E+00 0.626E-01   0.470E-03 0.193E-02 -.108E-02
   -.159E+01 0.141E+02 -.496E+00   0.161E+01 -.145E+02 0.504E+00   -.248E-01 0.428E+00 -.287E-02   0.291E-03 -.534E-03 -.328E-03
   -.127E+01 0.846E+00 0.138E+02   0.133E+01 -.885E+00 -.143E+02   -.491E-01 0.390E-01 0.491E+00   -.865E-03 -.561E-03 -.795E-03
   -.638E+02 -.654E+02 -.654E+02   0.665E+02 0.688E+02 0.691E+02   -.256E+01 -.314E+01 -.344E+01   0.399E-03 0.818E-04 0.103E-02
 -----------------------------------------------------------------------------------------------
   0.114E+00 -.309E+00 0.832E+00   -.497E-12 -.199E-12 -.711E-13   0.311E-01 0.537E-01 -.112E+01   -.536E-03 -.103E-02 0.144E-01
 
 
 POSITION                                       TOTAL-FORCE (eV/Angst)
 -----------------------------------------------------------------------------------
      0.02590     13.05878      6.51953         0.000424     -0.000546      0.000032
      0.02490      6.51591     13.06217         0.000748      0.000525      0.000076
      0.02677      6.51841      6.52245        -0.000230     -0.000133     -0.000839
      6.56580     13.05682     13.05952         0.000879      0.000751     -0.000107
      6.56469     13.04776      6.53144         0.000255      0.000310      0.000054
      6.55972      6.50925     13.06211         0.002251      0.000831      0.002642
      6.56861      6.51522      6.52030         0.000984     -0.000345     -0.000260
     12.99520      3.18453      3.19359         0.003143     -0.000916      0.000856
      0.08316      3.18954      9.84904        -0.000947      0.000411      0.000551
      0.11596      9.86636      3.18909        -0.003752     -0.002828      0.000641
     13.02635      9.84321      9.85985        -0.000593      0.001796     -0.000641
      6.54400      3.22225      3.23804        -0.001099     -0.002929      0.000350
      6.57907      3.21224      9.81746        -0.000488      0.000900      0.001045
      6.56694      9.80751      3.22828        -0.000374     -0.000077      0.000853
      6.55128      9.80216      9.81523        -0.000356     -0.000555      0.001510
      3.19905     12.99211      3.20104         0.000143     -0.002033      0.000130
      3.20812      0.02085      9.84035         0.000664     -0.000149      0.000063
      3.28596      6.52180      3.22631         0.000860     -0.000260      0.000020
      3.28932      6.50145      9.81699        -0.001228      0.003227     -0.001758
      9.91240      0.05391      3.19599         0.000365     -0.000136      0.000736
      9.91965     13.00714      9.86951        -0.000791     -0.000909      0.000423
      9.84224      6.51972      3.24567        -0.000327     -0.001552      0.001007
      9.84571      6.51356      9.80356         0.001337     -0.001222      0.001072
      3.20322      3.17283     13.03451         0.000521      0.002467     -0.000700
      3.28685      3.23559      6.51255         0.003132      0.000854      0.002302
      3.19714      9.86040      0.04396         0.001739     -0.000393      0.000476
      3.29418      9.78517      6.52383        -0.000169     -0.000487     -0.000183
      9.91563      3.19918      0.06369         0.001741      0.000634      0.000666
      9.83209      3.22921      6.53305         0.000289      0.000067      0.000607
      9.90511      9.83573     13.03918        -0.000974     -0.000182      0.000640
      9.84492      9.80775      6.51258        -0.000665     -0.001978      0.001157
      1.64624      1.61975      4.86661         0.003255     -0.000545      0.005802
      1.53285      1.49953     11.52051         0.000348     -0.000239     -0.005623
      1.65730      8.15923      4.87347         0.001402     -0.002741      0.000503
      1.65773      8.16272     11.42385        -0.003934     -0.002133      0.000271
      8.19419      1.60186      4.88044        -0.000650     -0.001626     -0.002071
      8.23560      1.60727     11.45037        -0.001541      0.004342      0.000982
      8.19321      8.16507      4.87861         0.000476      0.000753      0.000623
      8.20936      8.16683     11.43782        -0.001496      0.001383     -0.001248
      1.64041      4.86093      1.62269         0.002950     -0.003121      0.002320
      1.65717      4.87344      8.16097        -0.001526     -0.001234     -0.003125
      1.52101     11.55923      1.48098        -0.000022     -0.001182      0.000142
      1.65116     11.41122      8.16396         0.000311     -0.003186      0.000057
      8.19383      4.87159      1.61670        -0.006146     -0.001017      0.006641
      8.19214      4.87676      8.16624        -0.005623     -0.000354     -0.004798
      8.22649     11.44255      1.61342        -0.000478      0.002512      0.001830
      8.21385     11.43380      8.18058        -0.002830      0.002348     -0.001615
      4.89789      1.58525      1.61210        -0.003433      0.006845     -0.002457
      4.91990      1.60235      8.16718         0.001919      0.001703     -0.000747
      4.92038      8.17477      1.58955         0.000646      0.000341      0.000636
      4.92875      8.14408      8.16631         0.002504      0.002532     -0.000301
     11.59496      1.49089      1.48526         0.000476     -0.001719     -0.002274
     11.46630      1.60511      8.16659        -0.002887      0.001560     -0.002382
     11.48278      8.16526      1.62329        -0.000580      0.000401     -0.003983
     11.46584      8.16319      8.15803         0.002215     -0.002157      0.001085
      4.92620      4.88666      4.87434         0.000291      0.001841      0.000712
      4.91662      4.84302     11.44446        -0.000040      0.002669     -0.003577
      4.91969     11.43113      4.87207         0.005059      0.001073      0.000271
      4.89825     11.43713     11.43340        -0.000232     -0.001796     -0.001253
     11.46141      4.87844      4.89431         0.004088     -0.003435     -0.000373
     11.46872      4.87096     11.43052        -0.001023      0.001844      0.002964
     11.47139     11.43459      4.86453         0.000596     -0.001907      0.004428
     11.58766     11.52208     11.55285        -0.001578      0.001100     -0.006862
 -----------------------------------------------------------------------------------
    total drift:                               -0.056302      0.077543      0.011702


--------------------------------------------------------------------------------------------------------



  FREE ENERGIE OF THE ION-ELECTRON SYSTEM (eV)
  ---------------------------------------------------
  free  energy   TOTEN  =      -205.69150400 eV

  energy  without entropy=     -205.68630890  energy(sigma->0) =     -205.68890645
 
 d Force = 0.2304982E-04[ 0.903E-05, 0.371E-04]  d Energy = 0.1613650E-04 0.691E-05
 d Force =-0.2106275E-01[-0.211E-01,-0.210E-01]  d Ewald  =-0.2106275E-01 0.353E-09


--------------------------------------------------------------------------------------------------------


    POTLOK:  cpu time    1.1627: real time    1.1631


--------------------------------------------------------------------------------------------------------


 Steepest descent step on ions:
 trial-energy change:   -0.000016  1 .order   -0.000023   -0.000037   -0.000009
  (g-gl).g = 0.371E-04      g.g   = 0.371E-04  gl.gl    = 0.000E+00
 g(Force)  = 0.371E-04   g(Stress)= 0.000E+00 ortho     = 0.000E+00
 gamma     =   0.00000
 trial     =   1.00000
 opt step  =   1.32229  (harmonic =   1.32229) maximal distance =0.00019516
 next E    =  -205.691512   (d E  =  -0.00002)


--------------------------------------------------------------------------------------------------------


  
 reached required accuracy - stopping structural energy minimisation
     LOOP+:  cpu time   93.4669: real time   95.4188
    4ORBIT:  cpu time    0.0000: real time    0.0000
 


 total charge     
 
# of ion       s       p       d       tot
------------------------------------------
    1        0.419   0.294   9.589  10.302
    2        0.420   0.294   9.589  10.303
    3        0.420   0.292   9.590  10.302
    4        0.420   0.295   9.589  10.304
    5        0.422   0.292   9.588  10.303
    6        0.422   0.291   9.588  10.301
    7        0.421   0.294   9.589  10.304
    8        0.424   0.292   9.588  10.303
    9        0.422   0.293   9.588  10.303
   10        0.423   0.290   9.588  10.302
   11        0.423   0.292   9.588  10.303
   12        0.421   0.294   9.589  10.304
   13        0.421   0.294   9.589  10.304
   14        0.421   0.294   9.589  10.304
   15        0.420   0.293   9.589  10.302
   16        0.424   0.290   9.588  10.302
   17        0.423   0.292   9.588  10.303
   18        0.420   0.293   9.589  10.303
   19        0.420   0.294   9.589  10.304
   20        0.424   0.290   9.588  10.302
   21        0.423   0.291   9.588  10.302
   22        0.420   0.293   9.589  10.303
   23        0.421   0.294   9.589  10.304
   24        0.423   0.290   9.588  10.300
   25        0.420   0.293   9.589  10.303
   26        0.424   0.291   9.588  10.303
   27        0.420   0.294   9.590  10.304
   28        0.424   0.292   9.588  10.304
   29        0.421   0.295   9.589  10.305
   30        0.423   0.291   9.588  10.302
   31        0.421   0.294   9.589  10.303
   32        1.290   2.292   0.017   3.599
   33        1.310   2.224   0.017   3.551
   34        1.290   2.294   0.017   3.602
   35        1.290   2.293   0.017   3.600
   36        1.292   2.288   0.017   3.596
   37        1.290   2.290   0.017   3.598
   38        1.291   2.292   0.017   3.600
   39        1.292   2.283   0.017   3.592
   40        1.290   2.291   0.017   3.598
   41        1.291   2.291   0.017   3.600
   42        1.310   2.231   0.018   3.559
   43        1.290   2.292   0.017   3.599
   44        1.291   2.288   0.017   3.596
   45        1.291   2.293   0.017   3.601
   46        1.291   2.289   0.017   3.597
   47        1.292   2.284   0.017   3.593
   48        1.291   2.289   0.017   3.596
   49        1.292   2.284   0.017   3.593
   50        1.291   2.287   0.017   3.596
   51        1.291   2.292   0.017   3.600
   52        1.310   2.232   0.018   3.560
   53        1.290   2.293   0.017   3.600
   54        1.290   2.291   0.017   3.598
   55        1.291   2.291   0.017   3.599
   56        1.291   2.293   0.017   3.601
   57        1.292   2.283   0.017   3.592
   58        1.292   2.287   0.017   3.596
   59        1.290   2.290   0.017   3.597
   60        1.290   2.294   0.018   3.602
   61        1.290   2.293   0.017   3.600
   62        1.290   2.292   0.017   3.599
   63        1.310   2.223   0.018   3.550
--------------------------------------------------
tot         54.452  82.096 297.803 434.350
 

 total amount of memory used by VASP MPI-rank0    77580. kBytes
=======================================================================

   base      :      30000. kBytes
   nonlr-proj:       3327. kBytes
   fftplans  :       6877. kBytes
   grid      :      11280. kBytes
   one-center:         46. kBytes
   HF        :        129. kBytes
   wavefun   :       2812. kBytes
   fock_wrk  :      23109. kBytes
 
  
  
 General timing and accounting informations for this job:
 ========================================================
  
                  Total CPU time used (sec):      579.896
                            User time (sec):      573.789
                          System time (sec):        6.107
                         Elapsed time (sec):      588.235
  
                   Maximum memory used (kb):      298296.
                   Average memory used (kb):           0.
  
                          Minor page faults:       227734
                          Major page faults:           22
                 Voluntary context switches:         8343
