 vasp.6.1.1 19Jun20 (build Oct 26 2020 17:25:13) gamma-only                     
  
 executed on             LinuxIFC date 2021.02.18  02:47:00
 running on   48 total cores
 distrk:  each k-point on   48 cores,    1 groups
 distr:  one band on NCORE=  12 cores,    4 groups


--------------------------------------------------------------------------------------------------------


 INCAR:
 POTCAR:    PAW_PBE Cd 06Sep2000                  
 POTCAR:    PAW_PBE Te 08Apr2002                  
 POTCAR:    PAW_PBE Cd 06Sep2000                  
   VRHFIN =Cd : s2 d10                                                                              
   LEXCH  = PE                                                                                      
   EATOM  =  1293.1815 eV,   95.0462 Ry                                                             
                                                                                                    
   TITEL  = PAW_PBE Cd 06Sep2000                                                                    
   LULTRA =        F    use ultrasoft PP ?                                                          
   IUNSCR =        1    unscreen: 0-lin 1-nonlin 2-no                                               
   RPACOR =    2.000    partial core radius                                                         
   POMASS =  112.411; ZVAL   =   12.000    mass and valenz                                          
   RCORE  =    2.300    outmost cutoff radius                                                       
   RWIGS  =    2.980; RWIGS  =    1.577    wigner-seitz radius (au A)                               
   ENMAX  =  274.336; ENMIN  =  205.752 eV                                                          
   RCLOC  =    2.054    cutoff for local pot                                                        
   LCOR   =        T    correct aug charges                                                         
   LPAW   =        T    paw PP                                                                      
   EAUG   =  456.106                                                                                
   DEXC   =    0.000                                                                                
   RMAX   =    2.358    core radius for proj-oper                                                   
   RAUG   =    1.300    factor for augmentation sphere                                              
   RDEP   =    2.450    radius for radial grids                                                     
   RDEPT  =    1.955    core radius for aug-charge                                                  
                                                                                                    
   Atomic configuration                                                                             
   12 entries                                                                                       
     n  l   j            E        occ.                                                              
     1  0  0.50    -26519.7817   2.0000                                                             
     2  0  0.50     -3936.9612   2.0000                                                             
     2  1  1.50     -3532.2230   6.0000                                                             
     3  0  0.50      -733.7908   2.0000                                                             
     3  1  1.50      -601.0792   6.0000                                                             
     3  2  2.50      -393.5307  10.0000                                                             
     4  0  0.50      -105.8977   2.0000                                                             
     4  1  1.50       -66.9488   6.0000                                                             
     4  2  2.50       -11.7331  10.0000                                                             
     5  0  0.50        -5.6592   2.0000                                                             
     5  1  0.50        -1.3606   0.0000                                                             
     4  3  2.50        -1.3606   0.0000                                                             
   Description                                                                                      
     l       E           TYP  RCUT    TYP  RCUT                                                     
     2    -11.7331479     23  2.300                                                                 
     2    -13.0937305     23  2.300                                                                 
     0     -5.6591502     23  2.300                                                                 
     0     -1.5561433     23  2.300                                                                 
     1     -2.7211652     23  2.300                                                                 
     1      8.3548275     23  2.300                                                                 
  local pseudopotential read in
  partial core-charges read in
  partial kinetic energy density read in
  atomic valenz-charges read in
  non local Contribution for L=           2  read in
    real space projection operators read in
  non local Contribution for L=           2  read in
    real space projection operators read in
  non local Contribution for L=           0  read in
    real space projection operators read in
  non local Contribution for L=           0  read in
    real space projection operators read in
  non local Contribution for L=           1  read in
    real space projection operators read in
  non local Contribution for L=           1  read in
    real space projection operators read in
    PAW grid and wavefunctions read in
 
   number of l-projection  operators is LMAX  =           6
   number of lm-projection operators is LMMAX =          18
 
 POTCAR:    PAW_PBE Te 08Apr2002                  
   VRHFIN =Te: s2p4                                                                                 
   LEXCH  = PE                                                                                      
   EATOM  =   223.2721 eV,   16.4100 Ry                                                             
                                                                                                    
   TITEL  = PAW_PBE Te 08Apr2002                                                                    
   LULTRA =        F    use ultrasoft PP ?                                                          
   IUNSCR =        1    unscreen: 0-lin 1-nonlin 2-no                                               
   RPACOR =    2.200    partial core radius                                                         
   POMASS =  127.600; ZVAL   =    6.000    mass and valenz                                          
   RCORE  =    2.300    outmost cutoff radius                                                       
   RWIGS  =    2.900; RWIGS  =    1.535    wigner-seitz radius (au A)                               
   ENMAX  =  174.982; ENMIN  =  131.236 eV                                                          
   ICORE  =        3    local potential                                                             
   LCOR   =        T    correct aug charges                                                         
   LPAW   =        T    paw PP                                                                      
   EAUG   =  368.792                                                                                
   DEXC   =    0.000                                                                                
   RMAX   =    2.345    core radius for proj-oper                                                   
   RAUG   =    1.300    factor for augmentation sphere                                              
   RDEP   =    2.397    radius for radial grids                                                     
   RDEPT  =    2.174    core radius for aug-charge                                                  
                                                                                                    
   Atomic configuration                                                                             
   13 entries                                                                                       
     n  l   j            E        occ.                                                              
     1  0  0.50    -31621.2075   2.0000                                                             
     2  0  0.50     -4848.7941   2.0000                                                             
     2  1  1.50     -4352.1960   6.0000                                                             
     3  0  0.50      -964.9612   2.0000                                                             
     3  1  1.50      -803.6179   6.0000                                                             
     3  2  2.50      -559.8710  10.0000                                                             
     4  0  0.50      -164.3522   2.0000                                                             
     4  1  1.50      -114.3756   6.0000                                                             
     4  2  2.50       -41.6483  10.0000                                                             
     5  0  0.50       -15.1072   2.0000                                                             
     5  1  0.50        -5.9526   4.0000                                                             
     5  2  1.50        -5.4423   0.0000                                                             
     4  3  2.50        -5.4423   0.0000                                                             
   Description                                                                                      
     l       E           TYP  RCUT    TYP  RCUT                                                     
     0    -15.1072389     23  2.300                                                                 
     0    -16.4678215     23  2.300                                                                 
     1     -5.9526306     23  2.300                                                                 
     1     -2.4873968     23  2.300                                                                 
     2     -5.4423304     23  2.300                                                                 
     3     -1.3605826     23  2.300                                                                 
  local pseudopotential read in
  partial core-charges read in
  partial kinetic energy density read in
  atomic valenz-charges read in
  non local Contribution for L=           0  read in
    real space projection operators read in
  non local Contribution for L=           0  read in
    real space projection operators read in
  non local Contribution for L=           1  read in
    real space projection operators read in
  non local Contribution for L=           1  read in
    real space projection operators read in
  non local Contribution for L=           2  read in
    real space projection operators read in
    PAW grid and wavefunctions read in
 
   number of l-projection  operators is LMAX  =           5
   number of lm-projection operators is LMMAX =          13
 
 Optimization of the real space projectors (new method)

 maximal supplied QI-value         = 16.25
 optimisation between [QCUT,QGAM] = [ 10.73, 21.61] = [ 32.22,130.83] Ry 
 Optimized for a Real-space Cutoff    1.34 Angstroem

   l    n(q)    QCUT    max X(q) W(low)/X(q) W(high)/X(q)  e(spline) 
   2      8    10.726    73.106    0.62E-03    0.58E-03    0.13E-06
   2      8    10.726    71.731    0.63E-03    0.59E-03    0.13E-06
   0      9    10.726   146.509    0.37E-03    0.31E-03    0.93E-07
   0      9    10.726    95.017    0.35E-03    0.30E-03    0.90E-07
   1      8    10.726    36.165    0.40E-03    0.62E-04    0.20E-06
   1      8    10.726    31.530    0.37E-03    0.46E-04    0.19E-06
 Optimization of the real space projectors (new method)

 maximal supplied QI-value         = 16.25
 optimisation between [QCUT,QGAM] = [ 10.73, 21.61] = [ 32.22,130.83] Ry 
 Optimized for a Real-space Cutoff    1.26 Angstroem

   l    n(q)    QCUT    max X(q) W(low)/X(q) W(high)/X(q)  e(spline) 
   0      8    10.726   224.858    0.42E-03    0.29E-03    0.13E-06
   0      8    10.726   205.313    0.42E-03    0.29E-03    0.14E-06
   1      8    10.726   119.695    0.28E-03    0.65E-03    0.18E-06
   1      8    10.726    84.282    0.28E-03    0.64E-03    0.18E-06
   2      7    10.726     5.599    0.26E-03    0.18E-03    0.37E-07
  PAW_PBE Cd 06Sep2000                  :
 energy of atom  1       EATOM=-1293.1815
 kinetic energy error for atom=    0.0084 (will be added to EATOM!!)
  PAW_PBE Te 08Apr2002                  :
 energy of atom  2       EATOM= -223.2721
 kinetic energy error for atom=    0.0008 (will be added to EATOM!!)
 
 
 POSCAR: -40.0%_BDM_Distortion_vac_1_Cd[0. 0. 0.]
  positions in direct lattice
  No initial velocities read in
 exchange correlation table for  LEXCH =        8
   RHO(1)=    0.500       N(1)  =     2000
   RHO(2)=  100.500       N(2)  =     4000
 


--------------------------------------------------------------------------------------------------------


 ion  position               nearest neighbor table
   1  0.009  0.997  0.512-  53 2.50  43 2.62  62 2.84  32 3.03
   2  0.029  0.496  0.996-  40 2.48  35 2.49  54 3.02  61 3.17
   3  0.030  0.515  0.491-  34 2.29  60 2.66  55 2.92  41 3.27
   4  0.510  0.991  0.991-  59 2.63  48 2.67  46 3.05  37 3.07
   5  0.505  0.963  0.467-  58 2.50  47 3.13  36 3.29  49 3.33
   6  0.489  0.481  0.006-  44 2.89  57 2.94  39 3.13  50 3.17
   7  0.483  0.473  0.528-  45 2.23  56 2.28  51 2.71  38 3.06
   8  0.996  0.251  0.223-  40 2.60  32 2.88  52 3.19  60 3.32
   9  0.990  0.252  0.728-  53 2.48  61 2.55  41 2.60  33 3.11
  10  0.007  0.739  0.244-  54 2.70  34 2.86  62 3.02  42 3.13
  11  0.989  0.785  0.750-  63 2.29  43 2.45  55 2.95  35 3.28
  12  0.480  0.266  0.227-  44 2.44  48 2.79  36 3.13  56 3.18
  13  0.504  0.213  0.725-  49 2.48  37 2.51  45 3.02  57 3.14
  14  0.504  0.764  0.253-  58 2.90  46 2.93  50 3.08  38 3.26
  15  0.498  0.744  0.722-  51 2.57  47 2.63  39 2.97  59 3.17
  16  0.236  0.991  0.270-  32 2.47  58 2.66  48 3.14  42 3.26
  17  0.257  0.966  0.756-  59 2.45  43 2.92  33 3.12  49 3.45
  18  0.243  0.487  0.262-  34 2.56  40 2.70  50 2.94  56 2.96  25 3.66
  19  0.270  0.518  0.734-  51 2.62  41 2.90  57 2.93  35 2.94
  20  0.744  0.006  0.269-  36 2.88  46 2.98  62 3.00
  21  0.741  0.996  0.729-  37 2.63  47 2.65  63 3.00  53 3.31
  22  0.727  0.516  0.276-  38 2.75  54 3.00  44 3.31  60 3.58
  23  0.749  0.519  0.757-  39 2.70  55 2.72  61 3.05  45 3.24
  24  0.238  0.257  0.029-  40 2.92  33 2.97  57 3.14  48 3.27
  25  0.249  0.280  0.450-  56 2.33  32 3.04  41 3.17  49 3.19  18 3.66
  26  0.266  0.752  0.994-  50 2.59  59 2.83  35 3.12
  27  0.252  0.712  0.496-  51 2.50  34 2.83  58 2.95  43 3.25
  28  0.757  0.278  0.990-  61 2.67  44 2.72  37 3.29  52 3.56
  29  0.735  0.240  0.517-  36 2.48  45 2.79  53 2.91  60 3.02
  30  0.756  0.740  0.010-  46 2.51  39 2.88  54 2.98  63 3.12
  31  0.752  0.769  0.487-  62 2.54  47 2.61  38 2.64  55 3.49
  32  0.119  0.118  0.347-  16 2.47   8 2.88   1 3.03  25 3.04
  33  0.131  0.130  0.875-  24 2.97   9 3.11  17 3.12  52 3.65
  34  0.121  0.598  0.367-   3 2.29  18 2.56  27 2.83  10 2.86
  35  0.118  0.610  0.872-   2 2.49  19 2.94  26 3.12  11 3.28
  36  0.633  0.161  0.378-  29 2.48  20 2.88  12 3.13   5 3.29
  37  0.630  0.124  0.838-  13 2.51  21 2.63   4 3.07  28 3.29
  38  0.624  0.626  0.422-  31 2.64  22 2.75   7 3.06  14 3.26
  39  0.621  0.631  0.874-  23 2.70  30 2.88  15 2.97   6 3.13
  40  0.103  0.397  0.139-   2 2.48   8 2.60  18 2.70  24 2.92
  41  0.140  0.358  0.652-   9 2.60  19 2.90  25 3.17   3 3.27
  42  0.048  0.936  0.117-  52 2.55  10 3.13  16 3.26
  43  0.106  0.864  0.627-  11 2.45   1 2.62  17 2.92  27 3.25
  44  0.615  0.345  0.126-  12 2.44  28 2.72   6 2.89  22 3.31
  45  0.605  0.384  0.607-   7 2.23  29 2.79  13 3.02  23 3.24
  46  0.655  0.860  0.119-  30 2.51  14 2.93  20 2.98   4 3.05
  47  0.641  0.851  0.629-  31 2.61  15 2.63  21 2.65   5 3.13
  48  0.400  0.094  0.129-   4 2.67  12 2.79  16 3.14  24 3.27
  49  0.380  0.140  0.601-  13 2.48  25 3.19   5 3.33  17 3.45
  50  0.350  0.635  0.131-  26 2.59  18 2.94  14 3.08   6 3.17
  51  0.380  0.632  0.612-  27 2.50  15 2.57  19 2.62   7 2.71
  52  0.929  0.081  0.061-  42 2.55   8 3.19  28 3.56  33 3.65
  53  0.911  0.134  0.602-   9 2.48   1 2.50  29 2.91  21 3.31
  54  0.888  0.606  0.140-  10 2.70  30 2.98  22 3.00   2 3.02
  55  0.897  0.609  0.643-  23 2.72   3 2.92  11 2.95  31 3.49
  56  0.383  0.391  0.411-   7 2.28  25 2.33  18 2.96  12 3.18
  57  0.370  0.361  0.858-  19 2.93   6 2.94  13 3.14  24 3.14
  58  0.359  0.874  0.382-   5 2.50  16 2.66  14 2.90  27 2.95
  59  0.380  0.891  0.875-  17 2.45   4 2.63  26 2.83  15 3.17
  60  0.903  0.370  0.427-   3 2.66  29 3.02   8 3.32  22 3.58
  61  0.887  0.359  0.855-   9 2.55  28 2.67  23 3.05   2 3.17
  62  0.884  0.871  0.389-  31 2.54   1 2.84  20 3.00  10 3.02
  63  0.884  0.874  0.859-  11 2.29  21 3.00  30 3.12
 

IMPORTANT INFORMATION: All symmetrisations will be switched off!
NOSYMM: (Re-)initialisation of all symmetry stuff for point group C_1.


----------------------------------------------------------------------------------------

                                     Primitive cell                                     

  volume of cell :    2241.2856

  direct lattice vectors                    reciprocal lattice vectors
    13.086768000  0.000000000  0.000000000     0.076413061  0.000000000  0.000000000
     0.000000000 13.086768000  0.000000000     0.000000000  0.076413061  0.000000000
     0.000000000  0.000000000 13.086768000     0.000000000  0.000000000  0.076413061

  length of vectors
    13.086768000 13.086768000 13.086768000     0.076413061  0.076413061  0.076413061

  position of ions in fractional coordinates (direct lattice)
     0.009489000  0.997359000  0.512373000
     0.029095000  0.495527000  0.995527000
     0.030168000  0.514661000  0.491032000
     0.510365000  0.991147000  0.991103000
     0.504622000  0.963450000  0.467048000
     0.489258000  0.480652000  0.006003000
     0.482654000  0.473020000  0.527999000
     0.995687000  0.251290000  0.222783000
     0.989601000  0.252119000  0.728012000
     0.007177000  0.738526000  0.244428000
     0.988505000  0.785385000  0.749742000
     0.479794000  0.265713000  0.226678000
     0.503990000  0.212564000  0.724627000
     0.503761000  0.764107000  0.253274000
     0.497791000  0.744248000  0.721755000
     0.236249000  0.991200000  0.270194000
     0.256564000  0.966320000  0.756191000
     0.242644000  0.487069000  0.261685000
     0.269695000  0.517790000  0.733968000
     0.744093000  0.006328000  0.268636000
     0.740846000  0.996453000  0.728865000
     0.727149000  0.515522000  0.275909000
     0.748624000  0.519171000  0.756908000
     0.237676000  0.256904000  0.029382000
     0.249316000  0.279890000  0.449954000
     0.265701000  0.751663000  0.994288000
     0.251753000  0.712031000  0.495804000
     0.756822000  0.278233000  0.990099000
     0.734555000  0.240415000  0.517487000
     0.756280000  0.739880000  0.009805000
     0.751854000  0.768504000  0.486588000
     0.118741000  0.117509000  0.347042000
     0.130657000  0.129987000  0.875098000
     0.120519000  0.597962000  0.366964000
     0.118453000  0.609674000  0.871919000
     0.632719000  0.161032000  0.378335000
     0.629920000  0.123578000  0.838345000
     0.624493000  0.626151000  0.422056000
     0.621325000  0.630761000  0.874337000
     0.102674000  0.396832000  0.139364000
     0.140111000  0.357628000  0.651798000
     0.048220000  0.936211000  0.116845000
     0.106078000  0.864182000  0.626904000
     0.615382000  0.345377000  0.126310000
     0.604707000  0.384047000  0.607436000
     0.654609000  0.860037000  0.118848000
     0.640541000  0.851486000  0.629345000
     0.399971000  0.094292000  0.128527000
     0.379965000  0.139935000  0.601370000
     0.349775000  0.634971000  0.130673000
     0.379785000  0.631618000  0.612009000
     0.929437000  0.080599000  0.061354000
     0.910642000  0.134052000  0.602242000
     0.887542000  0.606380000  0.140036000
     0.897133000  0.609322000  0.643404000
     0.382885000  0.390704000  0.411235000
     0.370312000  0.360601000  0.858007000
     0.359415000  0.873527000  0.381517000
     0.380286000  0.890802000  0.875248000
     0.902767000  0.369944000  0.426964000
     0.886952000  0.358625000  0.854542000
     0.884217000  0.870731000  0.388640000
     0.884040000  0.873609000  0.858823000

  ion indices of the primitive-cell ions
   primitive index   ion index
                 1           1
                 2           2
                 3           3
                 4           4
                 5           5
                 6           6
                 7           7
                 8           8
                 9           9
                10          10
                11          11
                12          12
                13          13
                14          14
                15          15
                16          16
                17          17
                18          18
                19          19
                20          20
                21          21
                22          22
                23          23
                24          24
                25          25
                26          26
                27          27
                28          28
                29          29
                30          30
                31          31
                32          32
                33          33
                34          34
                35          35
                36          36
                37          37
                38          38
                39          39
                40          40
                41          41
                42          42
                43          43
                44          44
                45          45
                46          46
                47          47
                48          48
                49          49
                50          50
                51          51
                52          52
                53          53
                54          54
                55          55
                56          56
                57          57
                58          58
                59          59
                60          60
                61          61
                62          62
                63          63

----------------------------------------------------------------------------------------

 
 
 KPOINTS: Kpoints from DefectsWithTheBoys.vasp_gam

Automatic generation of k-mesh.
Space group operators:
 irot       det(A)        alpha          n_x          n_y          n_z        tau_x        tau_y        tau_z
    1     1.000000     0.000000     1.000000     0.000000     0.000000     0.000000     0.000000     0.000000
 
 Subroutine IBZKPT returns following result:
 ===========================================
 
 Found      1 irreducible k-points:
 
 Following reciprocal coordinates:
            Coordinates               Weight
  0.000000  0.000000  0.000000      1.000000
 
 Following cartesian coordinates:
            Coordinates               Weight
  0.000000  0.000000  0.000000      1.000000
 
 
 Subroutine IBZKPT_HF returns following result:
 ==============================================
 
 Found      1 k-points in 1st BZ
 the following      1 k-points will be used (e.g. in the exchange kernel)
 Following reciprocal coordinates:   # in IRBZ
  0.000000  0.000000  0.000000    1.00000000   1 t-inv F


--------------------------------------------------------------------------------------------------------




 Dimension of arrays:
   k-points           NKPTS =      1   k-points in BZ     NKDIM =      1   number of bands    NBANDS=    340
   number of dos      NEDOS =   2000   number of ions     NIONS =     63
   non local maximal  LDIM  =      6   non local SUM 2l+1 LMDIM =     18
   total plane-waves  NPLWV = 884736
   max r-space proj   IRMAX =   4034   max aug-charges    IRDMAX=  23156
   dimension x,y,z NGX =    96 NGY =   96 NGZ =   96
   dimension x,y,z NGXF=   192 NGYF=  192 NGZF=  192
   support grid    NGXF=   192 NGYF=  192 NGZF=  192
   ions per type =              31  32
   NGX,Y,Z   is equivalent  to a cutoff of  12.20, 12.20, 12.20 a.u.
   NGXF,Y,Z  is equivalent  to a cutoff of  24.39, 24.39, 24.39 a.u.

 SYSTEM =  unknown system                          
 POSCAR =  -40.0%_BDM_Distortion_vac_1_Cd[0. 0. 0.]

 Startparameter for this run:
   NWRITE =      2    write-flag & timer
   PREC   = accura    normal or accurate (medium, high low for compatibility)
   ISTART =      0    job   : 0-new  1-cont  2-samecut
   ICHARG =      1    charge: 1-file 2-atom 10-const
   ISPIN  =      1    spin polarized calculation?
   LNONCOLLINEAR =      F non collinear calculations
   LSORBIT =      F    spin-orbit coupling
   INIWAV =      1    electr: 0-lowe 1-rand  2-diag
   LASPH  =      T    aspherical Exc in radial PAW
   METAGGA=      F    non-selfconsistent MetaGGA calc.

 Electronic Relaxation 1
   ENCUT  =  450.0 eV  33.07 Ry    5.75 a.u.  22.64 22.64 22.64*2*pi/ulx,y,z
   ENINI  =  450.0     initial cutoff
   ENAUG  =  456.1 eV  augmentation charge cutoff
   NELM   =    100;   NELMIN=  2; NELMDL= -5     # of ELM steps 
   EDIFF  = 0.5E-05   stopping-criterion for ELM
   LREAL  =      T    real-space projection
   NLSPLINE    = F    spline interpolate recip. space projectors
   LCOMPAT=      F    compatible to vasp.4.4
   GGA_COMPAT  = T    GGA compatible to vasp.4.4-vasp.4.6
   LMAXPAW     = -100 max onsite density
   LMAXMIX     =    2 max onsite mixed and CHGCAR
   VOSKOWN=      0    Vosko Wilk Nusair interpolation
   ROPT   =   -0.00100  -0.00100
 Ionic relaxation
   EDIFFG = -.1E-01   stopping-criterion for IOM
   NSW    =    300    number of steps for IOM
   NBLOCK =      1;   KBLOCK =    300    inner block; outer block 
   IBRION =      2    ionic relax: 0-MD 1-quasi-New 2-CG
   NFREE  =      1    steps in history (QN), initial steepest desc. (CG)
   ISIF   =      2    stress and relaxation
   IWAVPR =     11    prediction:  0-non 1-charg 2-wave 3-comb
   ISYM   =      0    0-nonsym 1-usesym 2-fastsym
   LCORR  =      T    Harris-Foulkes like correction to forces

   POTIM  = 0.2000    time-step for ionic-motion
   TEIN   =    0.0    initial temperature
   TEBEG  =    0.0;   TEEND  =   0.0 temperature during run
   SMASS  =  -3.00    Nose mass-parameter (am)
   estimated Nose-frequenzy (Omega)   =  0.10E-29 period in steps = 0.31E+47 mass=  -0.391E-26a.u.
   SCALEE = 1.0000    scale energy and forces
   NPACO  =    256;   APACO  = 16.0  distance and # of slots for P.C.
   PSTRESS=    0.0 pullay stress

  Mass of Ions in am
   POMASS = 112.41127.60
  Ionic Valenz
   ZVAL   =  12.00  6.00
  Atomic Wigner-Seitz radii
   RWIGS  =  -1.00 -1.00
  virtual crystal weights 
   VCA    =   1.00  1.00
   NELECT =     564.0000    total number of electrons
   NUPDOWN=       0.0000    fix difference up-down

 DOS related values:
   EMIN   =  10.00;   EMAX   =-10.00  energy-range for DOS
   EFERMI =   0.00
   ISMEAR =     0;   SIGMA  =   0.05  broadening in eV -4-tet -1-fermi 0-gaus

 Electronic relaxation 2 (details)
   IALGO  =     38    algorithm
   LDIAG  =      T    sub-space diagonalisation (order eigenvalues)
   LSUBROT=      F    optimize rotation matrix (better conditioning)
   TURBO    =      0    0=normal 1=particle mesh
   IRESTART =      0    0=no restart 2=restart with 2 vectors
   NREBOOT  =      0    no. of reboots
   NMIN     =      0    reboot dimension
   EREF     =   0.00    reference energy to select bands
   IMIX   =      1    mixing-type and parameters
     AMIX     =   0.40;   BMIX     =  1.00
     AMIX_MAG =   1.60;   BMIX_MAG =  1.00
     AMIN     =   0.10
     WC   =   100.;   INIMIX=   1;  MIXPRE=   1;  MAXMIX= -45

 Intra band minimization:
   WEIMIN = 0.0010     energy-eigenvalue tresh-hold
   EBREAK =  0.37E-08  absolut break condition
   DEPER  =   0.30     relativ break condition  

   TIME   =   0.40     timestep for ELM

  volume/ion in A,a.u.               =      35.58       240.08
  Fermi-wavevector in a.u.,A,eV,Ry     =   1.033559  1.953144 14.534357  1.068245
  Thomas-Fermi vector in A             =   2.167812
 
 Write flags
   LWAVE        =      F    write WAVECAR
   LDOWNSAMPLE  =      F    k-point downsampling of WAVECAR
   LCHARG       =      T    write CHGCAR
   LVTOT        =      F    write LOCPOT, total local potential
   LVHAR        =      F    write LOCPOT, Hartree potential only
   LELF         =      F    write electronic localiz. function (ELF)
   LORBIT       =     11    0 simple, 1 ext, 2 COOP (PROOUT), +10 PAW based schemes


 Dipole corrections
   LMONO  =      F    monopole corrections only (constant potential shift)
   LDIPOL =      F    correct potential (dipole corrections)
   IDIPOL =      0    1-x, 2-y, 3-z, 4-all directions 
   EPSILON=  1.0000000 bulk dielectric constant

 Exchange correlation treatment:
   GGA     =    --    GGA type
   LEXCH   =     8    internal setting for exchange type
   VOSKOWN=      0    Vosko Wilk Nusair interpolation
   EXXOEP  =     0    0=HF, 1=EXX-LHF (local Hartree Fock) 2=EXX OEP
   LHFCALC =     T    Hartree Fock is set to
   LSYMGRAD=     F    symmetrize gradient (conserves proper symmetry)
   PRECFOCK=fast      Normal, Fast or Accurate (Low or Medium for compatibility)
   LRHFCALC=     F    long range Hartree Fock
   LRSCOR  =     F    long range correlation only (use DFT for short range part)
   LTHOMAS =     F    Thomas Fermi screening in HF
   LMODELHF=     F    short range full HF, long range fraction AEXX
   LFOCKACE=     T    use Adeptively-Compressed-Exchange operator
   ENCUT4O =  -1.0   cutoff for four orbital integrals eV
   LMAXFOCK=     4    L truncation for augmentation on plane wave grid
   LMAXFOCKAE=  -1    L truncation for all-electron charge restoration on plane wave grid
   NMAXFOCKAE=   1    number of basis functions for all-electron charge restoration
   LFOCKAEDFT=     F  apply the AE augmentation even for DFT
   NKREDX  =     1    reduce k-point grid by
   NKREDY  =     1    reduce k-point grid by
   NKREDZ  =     1    reduce k-point grid by
   SHIFTRED=     F    shift reduced grid of Gamma
   HFKIDENT=     F    idential grid for each k-point
   ODDONLY =     F    use only odd q-grid points
   EVENONLY=     F    use only even q-grid points
   HFALPHA =   -1.0000 decay constant for conv. correction
   MCALPHA =    0.0000 extent of test-charge in conv. correction in multipole expansion
   AEXX    =    0.3450 exact exchange contribution
   HFSCREEN=    0.2000 screening length (either q_TF or 0.3 A-1)
   HFSCREENC=   0.2000 screening length for correlation (either q_TF or 0.3 A-1)
   HFRCUT  =    0.0000 spherical cutoff for potential kernel
   ALDAX   =    0.6550 LDA exchange part
   AGGAX   =    0.6550 GGA exchange part
   ALDAC   =    1.0000 LDA correlation
   AGGAC   =    1.0000 GGA correlation
   ENCUTFOCK=  -1.0 apply spherical cutoff to Coloumb kernel
   NBANDSGWLOW=     1    first orbital included in HF term
   NBLOCK_FOCK=    64    blocking factor in FOCK_ACC
 Linear response parameters
   LEPSILON=     F    determine dielectric tensor
   LRPA    =     F    only Hartree local field effects (RPA)
   LNABLA  =     F    use nabla operator in PAW spheres
   LVEL    =     F    velocity operator in full k-point grid
   LINTERFAST=   F  fast interpolation
   KINTER  =     0    interpolate to denser k-point grid
   CSHIFT  =0.1000    complex shift for real part using Kramers Kronig
   OMEGAMAX=  -1.0    maximum frequency
   DEG_THRESHOLD= 0.2000000E-02 threshold for treating states as degnerate
   RTIME   =   -0.100 relaxation time in fs
  (WPLASMAI=    0.000 imaginary part of plasma frequency in eV, 0.658/RTIME)
   DFIELD  = 0.0000000 0.0000000 0.0000000 field for delta impulse in time
 
 Orbital magnetization related:
   ORBITALMAG=     F  switch on orbital magnetization
   LCHIMAG   =     F  perturbation theory with respect to B field
   DQ        =  0.001000  dq finite difference perturbation B field
   LLRAUG    =     F  two centre corrections for induced B field



--------------------------------------------------------------------------------------------------------


 conjugate gradient relaxation of ions
 charge density and potential will be updated during run
 non-spin polarized calculation
 Variant of blocked Davidson
 Davidson routine will perform the subspace rotation
 perform sub-space diagonalisation
    after iterative eigenvector-optimisation
 Kerker-like  mixing scheme
 using additional bands           58
 real space projection scheme for non local part
 use partial core corrections
 calculate Harris-corrections to forces 
   (improved forces if not selfconsistent)
 use gradient corrections 
 use of overlap-Matrix (Vanderbilt PP)
 Gauss-broadening in eV      SIGMA  =   0.05


--------------------------------------------------------------------------------------------------------


  energy-cutoff  :      450.00
  volume of cell :     2241.29
      direct lattice vectors                 reciprocal lattice vectors
    13.086768000  0.000000000  0.000000000     0.076413061  0.000000000  0.000000000
     0.000000000 13.086768000  0.000000000     0.000000000  0.076413061  0.000000000
     0.000000000  0.000000000 13.086768000     0.000000000  0.000000000  0.076413061

  length of vectors
    13.086768000 13.086768000 13.086768000     0.076413061  0.076413061  0.076413061


 
 k-points in units of 2pi/SCALE and weight: Kpoints from DefectsWithTheBoys.vasp_gam
   0.00000000  0.00000000  0.00000000       1.000
 
 k-points in reciprocal lattice and weights: Kpoints from DefectsWithTheBoys.vasp_gam
   0.00000000  0.00000000  0.00000000       1.000
 
 position of ions in fractional coordinates (direct lattice) 
   0.00948900  0.99735900  0.51237300
   0.02909500  0.49552700  0.99552700
   0.03016800  0.51466100  0.49103200
   0.51036500  0.99114700  0.99110300
   0.50462200  0.96345000  0.46704800
   0.48925800  0.48065200  0.00600300
   0.48265400  0.47302000  0.52799900
   0.99568700  0.25129000  0.22278300
   0.98960100  0.25211900  0.72801200
   0.00717700  0.73852600  0.24442800
   0.98850500  0.78538500  0.74974200
   0.47979400  0.26571300  0.22667800
   0.50399000  0.21256400  0.72462700
   0.50376100  0.76410700  0.25327400
   0.49779100  0.74424800  0.72175500
   0.23624900  0.99120000  0.27019400
   0.25656400  0.96632000  0.75619100
   0.24264400  0.48706900  0.26168500
   0.26969500  0.51779000  0.73396800
   0.74409300  0.00632800  0.26863600
   0.74084600  0.99645300  0.72886500
   0.72714900  0.51552200  0.27590900
   0.74862400  0.51917100  0.75690800
   0.23767600  0.25690400  0.02938200
   0.24931600  0.27989000  0.44995400
   0.26570100  0.75166300  0.99428800
   0.25175300  0.71203100  0.49580400
   0.75682200  0.27823300  0.99009900
   0.73455500  0.24041500  0.51748700
   0.75628000  0.73988000  0.00980500
   0.75185400  0.76850400  0.48658800
   0.11874100  0.11750900  0.34704200
   0.13065700  0.12998700  0.87509800
   0.12051900  0.59796200  0.36696400
   0.11845300  0.60967400  0.87191900
   0.63271900  0.16103200  0.37833500
   0.62992000  0.12357800  0.83834500
   0.62449300  0.62615100  0.42205600
   0.62132500  0.63076100  0.87433700
   0.10267400  0.39683200  0.13936400
   0.14011100  0.35762800  0.65179800
   0.04822000  0.93621100  0.11684500
   0.10607800  0.86418200  0.62690400
   0.61538200  0.34537700  0.12631000
   0.60470700  0.38404700  0.60743600
   0.65460900  0.86003700  0.11884800
   0.64054100  0.85148600  0.62934500
   0.39997100  0.09429200  0.12852700
   0.37996500  0.13993500  0.60137000
   0.34977500  0.63497100  0.13067300
   0.37978500  0.63161800  0.61200900
   0.92943700  0.08059900  0.06135400
   0.91064200  0.13405200  0.60224200
   0.88754200  0.60638000  0.14003600
   0.89713300  0.60932200  0.64340400
   0.38288500  0.39070400  0.41123500
   0.37031200  0.36060100  0.85800700
   0.35941500  0.87352700  0.38151700
   0.38028600  0.89080200  0.87524800
   0.90276700  0.36994400  0.42696400
   0.88695200  0.35862500  0.85454200
   0.88421700  0.87073100  0.38864000
   0.88404000  0.87360900  0.85882300
 
 position of ions in cartesian coordinates  (Angst):
   0.12418034 13.05220585  6.70530658
   0.38075951  6.48484689 13.02823089
   0.39480162  6.73524911  6.42602186
   6.67902835 12.97091084 12.97033503
   6.60387104 12.60844663  6.11214882
   6.40280594  6.29018121  0.07855987
   6.31638092  6.19030300  6.90980042
  13.03032477  3.28857393  2.91550944
  12.95067870  3.29942286  9.52732415
   0.09392373  9.66491842  3.19877253
  12.93633560 10.27815129  9.81169961
   6.27895277  3.47732439  2.96648240
   6.59560020  2.78177575  9.48302544
   6.59260333  9.99969104  3.31453808
   6.51447533  9.73980091  9.44544024
   3.09173585 12.97160444  3.53596619
   3.35759355 12.64600565  9.89609618
   3.17542573  6.37415900  3.42461088
   3.52943590  6.77619760  9.60526894
   9.73777246  0.08281307  3.51557701
   9.69527973 13.04034923  9.53848716
   9.51603026  6.74651681  3.61075707
   9.79706861  6.79427043  9.90547939
   3.11041067  3.36204305  0.38451542
   3.26274065  3.66285550  5.88844361
   3.47716734  9.83683930 13.01201638
   3.29463310  9.31818451  6.48847192
   9.90435393  3.64117072 12.95719591
   9.61295087  3.14625533  6.77223231
   9.89726090  9.68263791  0.12831576
   9.83933887 10.05723356  6.36786427
   1.55393592  1.53781302  4.54165814
   1.70987785  1.70110971 11.45220450
   1.57720419  7.82538997  4.80237273
   1.55016693  7.97866219 11.41060167
   8.28024676  2.10738842  4.95118237
   8.24361690  1.61723662 10.97122652
   8.17259501  8.19429287  5.52334896
   8.13113613  8.25462287 11.44224547
   1.34367082  5.19324832  1.82382434
   1.83360015  4.68019467  8.52992921
   0.63104395 12.25197616  1.52912341
   1.38821818 11.30934934  8.20414721
   8.05336147  4.51986867  1.65298967
   7.91366022  5.02593399  7.94937401
   8.56671611 11.25510469  1.55533620
   8.38261146 11.14319974  8.23609201
   5.23432768  1.23397753  1.68200303
   4.97251380  1.83129688  7.86998967
   4.57742428  8.30971816  1.71008723
   4.97015818  8.26583823  8.00921980
  12.16332639  1.05478041  0.80292556
  11.91736059  1.75430742  7.88140133
  11.61505624  7.93555438  1.83261864
  11.74057144  7.97405565  8.42007888
   5.01072717  5.11305260  5.38173704
   4.84618723  4.71910163 11.22853855
   4.70358072 11.43164519  4.99282447
   4.97671466 11.65771911 11.45416752
  11.81430229  4.84137130  5.58757881
  11.60733505  4.69324217 11.18319290
  11.57154274 11.39505459  5.08604152
  11.56922638 11.43271831 11.23921735
 


--------------------------------------------------------------------------------------------------------


 use parallel FFT for orbitals z direction half grid
 k-point   1 :   0.0000 0.0000 0.0000  plane waves:   24251

 maximum and minimum number of plane-waves per node :      2027     2015

 maximum number of plane-waves:     24251
 maximum index in each direction: 
   IXMAX=   22   IYMAX=   22   IZMAX=   22
   IXMIN=  -22   IYMIN=  -22   IZMIN=    0


 real space projection operators:
  total allocation   :      27383.21 KBytes
  max/ min on nodes  :       2498.76       2125.31


 parallel 3D FFT for wavefunctions:
    minimum data exchange during FFTs selected (reduces bandwidth)
 parallel 3D FFT for charge:
    minimum data exchange during FFTs selected (reduces bandwidth)


 FFT grid for exact exchange (Hartree Fock) 
  NGX = 48; NGY = 48; NGZ = 48

 use parallel FFT for orbitals z direction half grid
 
 Radii for the augmentation spheres in the non-local exchange
 for species   1 augmentation radius   1.444 (default was   1.070)
       energy cutoff for augmentation   1800.0
 for species   2 augmentation radius   1.606 (default was   1.190)
       energy cutoff for augmentation   1800.0

 real space projection operators:
  total allocation   :       9123.83 KBytes
  max/ min on nodes  :        866.99        663.09

 Maximum index for augmentation-charges in exchange           92
  SETUP_FOCK is finished

 total amount of memory used by VASP MPI-rank0    54582. kBytes
=======================================================================

   base      :      30000. kBytes
   nonlr-proj:       3438. kBytes
   fftplans  :       6877. kBytes
   grid      :      11280. kBytes
   one-center:         46. kBytes
   HF        :        129. kBytes
   wavefun   :       2812. kBytes
 
     INWAV:  cpu time    0.0000: real time    0.0000
 initial charge density was supplied:
 charge density of overlapping atoms calculated
 number of electron     564.0000000 magnetization 
 keeping initial charge density in first step


--------------------------------------------------------------------------------------------------------


 Maximum index for non-local projection operator          310
 Maximum index for augmentation-charges          779 (set IRDMAX)


--------------------------------------------------------------------------------------------------------


 First call to EWALD:  gamma=   0.135
 Maximum number of real-space cells 3x 3x 3
 Maximum number of reciprocal cells 3x 3x 3

    FEWALD:  cpu time    0.0024: real time    0.0024


--------------------------------------- Iteration      1(   1)  ---------------------------------------


    POTLOK:  cpu time    0.1054: real time    0.1118
    SETDIJ:  cpu time    0.5726: real time    0.5727
     EDDAV:  cpu time    1.5945: real time    1.5966
       DOS:  cpu time    0.0009: real time    0.0010
    --------------------------------------------
      LOOP:  cpu time    2.2735: real time    2.2822

 eigenvalue-minimisations  :   800
 total energy-change (2. order) :-0.8843738E+05  (-0.2790787E+05)
 number of electron     564.0000000 magnetization 
 augmentation part      564.0000000 magnetization 

 Free energy of the ion-electron system (eV)
  ---------------------------------------------------
  alpha Z        PSCENC =      1482.04539224
  Ewald energy   TEWEN  =    -31315.04039852
  -Hartree energ DENC   =    -16847.31033139
  -exchange      EXHF   =         0.00000000
  -V(xc)+E(xc)   XCENC  =      -730.94656119
  PAW double counting   =     43745.08136476  -132352.96792733
  entropy T*S    EENTRO =        -0.03304788
  eigenvalues    EBANDS =       443.41301711
  atomic energy  EATOM  =     47138.37786884
  Solvation  Ediel_sol  =         0.00000000
  ---------------------------------------------------
  free energy    TOTEN  =    -88437.38062336 eV

  energy without entropy =   -88437.34757548  energy(sigma->0) =   -88437.36409942
  exchange ACFDT corr.  =         0.00000000  see jH, gK, PRB 81, 115126


--------------------------------------------------------------------------------------------------------




--------------------------------------- Iteration      1(   2)  ---------------------------------------


     EDDAV:  cpu time    2.2932: real time    2.3385
       DOS:  cpu time    0.0010: real time    0.0012
    --------------------------------------------
      LOOP:  cpu time    2.2942: real time    2.3397

 eigenvalue-minimisations  :   796
 total energy-change (2. order) :-0.4387014E+04  (-0.4260326E+04)
 number of electron     564.0000000 magnetization 
 augmentation part      564.0000000 magnetization 

 Free energy of the ion-electron system (eV)
  ---------------------------------------------------
  alpha Z        PSCENC =      1482.04539224
  Ewald energy   TEWEN  =    -31315.04039852
  -Hartree energ DENC   =    -16847.31033139
  -exchange      EXHF   =         0.00000000
  -V(xc)+E(xc)   XCENC  =      -730.94656119
  PAW double counting   =     43745.08136476  -132352.96792733
  entropy T*S    EENTRO =        -0.00049168
  eigenvalues    EBANDS =     -3943.63385442
  atomic energy  EATOM  =     47138.37786884
  Solvation  Ediel_sol  =         0.00000000
  ---------------------------------------------------
  free energy    TOTEN  =    -92824.39493869 eV

  energy without entropy =   -92824.39444701  energy(sigma->0) =   -92824.39469285
  exchange ACFDT corr.  =         0.00000000  see jH, gK, PRB 81, 115126


--------------------------------------------------------------------------------------------------------




--------------------------------------- Iteration      1(   3)  ---------------------------------------


     EDDAV:  cpu time    2.1682: real time    2.2068
       DOS:  cpu time    0.0023: real time    0.0024
    --------------------------------------------
      LOOP:  cpu time    2.1705: real time    2.2092

 eigenvalue-minimisations  :   784
 total energy-change (2. order) :-0.3666879E+03  (-0.3614210E+03)
 number of electron     564.0000000 magnetization 
 augmentation part      564.0000000 magnetization 

 Free energy of the ion-electron system (eV)
  ---------------------------------------------------
  alpha Z        PSCENC =      1482.04539224
  Ewald energy   TEWEN  =    -31315.04039852
  -Hartree energ DENC   =    -16847.31033139
  -exchange      EXHF   =         0.00000000
  -V(xc)+E(xc)   XCENC  =      -730.94656119
  PAW double counting   =     43745.08136476  -132352.96792733
  entropy T*S    EENTRO =        -0.00000000
  eigenvalues    EBANDS =     -4310.32223737
  atomic energy  EATOM  =     47138.37786884
  Solvation  Ediel_sol  =         0.00000000
  ---------------------------------------------------
  free energy    TOTEN  =    -93191.08282997 eV

  energy without entropy =   -93191.08282997  energy(sigma->0) =   -93191.08282997
  exchange ACFDT corr.  =         0.00000000  see jH, gK, PRB 81, 115126


--------------------------------------------------------------------------------------------------------




--------------------------------------- Iteration      1(   4)  ---------------------------------------


     EDDAV:  cpu time    2.6459: real time    2.7355
       DOS:  cpu time    0.0010: real time    0.0010
    --------------------------------------------
      LOOP:  cpu time    2.6469: real time    2.7365

 eigenvalue-minimisations  :   880
 total energy-change (2. order) :-0.2077692E+02  (-0.2070100E+02)
 number of electron     564.0000000 magnetization 
 augmentation part      564.0000000 magnetization 

 Free energy of the ion-electron system (eV)
  ---------------------------------------------------
  alpha Z        PSCENC =      1482.04539224
  Ewald energy   TEWEN  =    -31315.04039852
  -Hartree energ DENC   =    -16847.31033139
  -exchange      EXHF   =         0.00000000
  -V(xc)+E(xc)   XCENC  =      -730.94656119
  PAW double counting   =     43745.08136476  -132352.96792733
  entropy T*S    EENTRO =        -0.00000000
  eigenvalues    EBANDS =     -4331.09915689
  atomic energy  EATOM  =     47138.37786884
  Solvation  Ediel_sol  =         0.00000000
  ---------------------------------------------------
  free energy    TOTEN  =    -93211.85974948 eV

  energy without entropy =   -93211.85974948  energy(sigma->0) =   -93211.85974948
  exchange ACFDT corr.  =         0.00000000  see jH, gK, PRB 81, 115126


--------------------------------------------------------------------------------------------------------




--------------------------------------- Iteration      1(   5)  ---------------------------------------


    POTLOK:  cpu time    0.2469: real time    0.2476
    SETDIJ:  cpu time    0.9342: real time    0.9348
     EDDAV:  cpu time   17.9076: real time   18.3412
       DOS:  cpu time    0.0008: real time    0.0008
    CHARGE:  cpu time    0.0737: real time    0.0737
    MIXING:  cpu time    0.0011: real time    0.0011
    --------------------------------------------
      LOOP:  cpu time   19.1642: real time   19.5992

 eigenvalue-minimisations  :   680
 total energy-change (2. order) : 0.9303200E+05  (-0.7794217E+02)
 number of electron     563.9999995 magnetization 
 augmentation part      141.6383450 magnetization 

 Free energy of the ion-electron system (eV)
  ---------------------------------------------------
  alpha Z        PSCENC =      1482.04539224
  Ewald energy   TEWEN  =    -31315.04039852
  -Hartree energ DENC   =    -16847.31033139
  -exchange      EXHF   =      1588.49816525
  -V(xc)+E(xc)   XCENC  =      -597.67461801
  PAW double counting   =     43590.36926174   -41748.31759969
  entropy T*S    EENTRO =        -0.00000000
  eigenvalues    EBANDS =     -3470.81092389
  atomic energy  EATOM  =     47138.37786884
  Solvation  Ediel_sol  =         0.00000000
  ---------------------------------------------------
  free energy    TOTEN  =      -179.86318343 eV

  energy without entropy =     -179.86318343  energy(sigma->0) =     -179.86318343
  exchange ACFDT corr.  =         0.00000000  see jH, gK, PRB 81, 115126


--------------------------------------------------------------------------------------------------------




--------------------------------------- Iteration      1(   6)  ---------------------------------------


    POTLOK:  cpu time    0.2442: real time    0.2465
    SETDIJ:  cpu time    0.9278: real time    0.9282
     EDDAV:  cpu time   18.1957: real time   18.2678
       DOS:  cpu time    0.0034: real time    0.0034
    CHARGE:  cpu time    0.0725: real time    0.0728
    MIXING:  cpu time    0.0018: real time    0.0018
    --------------------------------------------
      LOOP:  cpu time   19.4455: real time   19.5205

 eigenvalue-minimisations  :   768
 total energy-change (2. order) : 0.5920273E+00  (-0.6416744E+01)
 number of electron     563.9999992 magnetization 
 augmentation part      141.5442710 magnetization 

 Free energy of the ion-electron system (eV)
  ---------------------------------------------------
  alpha Z        PSCENC =      1482.04539224
  Ewald energy   TEWEN  =    -31315.04039852
  -Hartree energ DENC   =    -16859.37472035
  -exchange      EXHF   =      1529.57280483
  -V(xc)+E(xc)   XCENC  =      -595.17848353
  PAW double counting   =     75981.97137780   -74119.89141189
  entropy T*S    EENTRO =        -0.00000000
  eigenvalues    EBANDS =     -3421.75358557
  atomic energy  EATOM  =     47138.37786884
  Solvation  Ediel_sol  =         0.00000000
  ---------------------------------------------------
  free energy    TOTEN  =      -179.27115614 eV

  energy without entropy =     -179.27115614  energy(sigma->0) =     -179.27115614
  exchange ACFDT corr.  =         0.00000000  see jH, gK, PRB 81, 115126


--------------------------------------------------------------------------------------------------------




--------------------------------------- Iteration      1(   7)  ---------------------------------------


    POTLOK:  cpu time    0.2420: real time    0.2511
    SETDIJ:  cpu time    0.9273: real time    0.9296
     EDDAV:  cpu time   18.0087: real time   18.1909
       DOS:  cpu time    0.0014: real time    0.0014
    CHARGE:  cpu time    0.0744: real time    0.0745
    MIXING:  cpu time    0.0032: real time    0.0032
    --------------------------------------------
      LOOP:  cpu time   19.2571: real time   19.4506

 eigenvalue-minimisations  :   744
 total energy-change (2. order) : 0.8985387E+00  (-0.1588876E+01)
 number of electron     563.9999991 magnetization 
 augmentation part      142.9794677 magnetization 

 Free energy of the ion-electron system (eV)
  ---------------------------------------------------
  alpha Z        PSCENC =      1482.04539224
  Ewald energy   TEWEN  =    -31315.04039852
  -Hartree energ DENC   =    -16763.31593188
  -exchange      EXHF   =      1508.42104765
  -V(xc)+E(xc)   XCENC  =      -595.27136677
  PAW double counting   =    105898.26366558  -104024.07813059
  entropy T*S    EENTRO =        -0.00000000
  eigenvalues    EBANDS =     -3507.77476395
  atomic energy  EATOM  =     47138.37786884
  Solvation  Ediel_sol  =         0.00000000
  ---------------------------------------------------
  free energy    TOTEN  =      -178.37261740 eV

  energy without entropy =     -178.37261740  energy(sigma->0) =     -178.37261740
  exchange ACFDT corr.  =         0.00000000  see jH, gK, PRB 81, 115126


--------------------------------------------------------------------------------------------------------




--------------------------------------- Iteration      1(   8)  ---------------------------------------


    POTLOK:  cpu time    0.2573: real time    0.2595
    SETDIJ:  cpu time    0.9278: real time    0.9281
     EDDAV:  cpu time   17.8063: real time   18.0921
       DOS:  cpu time    0.0010: real time    0.0010
    CHARGE:  cpu time    0.0717: real time    0.0717
    MIXING:  cpu time    0.0012: real time    0.0012
    --------------------------------------------
      LOOP:  cpu time   19.0654: real time   19.3538

 eigenvalue-minimisations  :   764
 total energy-change (2. order) :-0.4009298E+00  (-0.3403304E+00)
 number of electron     563.9999990 magnetization 
 augmentation part      143.5090891 magnetization 

 Free energy of the ion-electron system (eV)
  ---------------------------------------------------
  alpha Z        PSCENC =      1482.04539224
  Ewald energy   TEWEN  =    -31315.04039852
  -Hartree energ DENC   =    -16718.78836205
  -exchange      EXHF   =      1502.64783787
  -V(xc)+E(xc)   XCENC  =      -595.11870398
  PAW double counting   =    126516.80219122  -124639.91981871
  entropy T*S    EENTRO =        -0.00000001
  eigenvalues    EBANDS =     -3549.77955415
  atomic energy  EATOM  =     47138.37786884
  Solvation  Ediel_sol  =         0.00000000
  ---------------------------------------------------
  free energy    TOTEN  =      -178.77354724 eV

  energy without entropy =     -178.77354724  energy(sigma->0) =     -178.77354724
  exchange ACFDT corr.  =         0.00000000  see jH, gK, PRB 81, 115126


--------------------------------------------------------------------------------------------------------




--------------------------------------- Iteration      1(   9)  ---------------------------------------


    POTLOK:  cpu time    0.2672: real time    0.2690
    SETDIJ:  cpu time    0.9279: real time    0.9282
     EDDAV:  cpu time   18.0282: real time   18.3434
       DOS:  cpu time    0.0009: real time    0.0009
    CHARGE:  cpu time    0.0733: real time    0.0733
    MIXING:  cpu time    0.0014: real time    0.0014
    --------------------------------------------
      LOOP:  cpu time   19.2989: real time   19.6161

 eigenvalue-minimisations  :   740
 total energy-change (2. order) : 0.1323849E+00  (-0.3475885E-01)
 number of electron     563.9999989 magnetization 
 augmentation part      143.5360270 magnetization 

 Free energy of the ion-electron system (eV)
  ---------------------------------------------------
  alpha Z        PSCENC =      1482.04539224
  Ewald energy   TEWEN  =    -31315.04039852
  -Hartree energ DENC   =    -16704.41097735
  -exchange      EXHF   =      1501.29038187
  -V(xc)+E(xc)   XCENC  =      -594.83918685
  PAW double counting   =    140430.53074478  -138553.94874867
  entropy T*S    EENTRO =        -0.00000085
  eigenvalues    EBANDS =     -3562.64623788
  atomic energy  EATOM  =     47138.37786884
  Solvation  Ediel_sol  =         0.00000000
  ---------------------------------------------------
  free energy    TOTEN  =      -178.64116238 eV

  energy without entropy =     -178.64116153  energy(sigma->0) =     -178.64116196
  exchange ACFDT corr.  =         0.00000000  see jH, gK, PRB 81, 115126


--------------------------------------------------------------------------------------------------------




--------------------------------------- Iteration      1(  10)  ---------------------------------------


    POTLOK:  cpu time    0.2586: real time    0.2614
    SETDIJ:  cpu time    0.9279: real time    0.9293
     EDDAV:  cpu time   17.2495: real time   17.3822
       DOS:  cpu time    0.0008: real time    0.0008
    CHARGE:  cpu time    0.0728: real time    0.0729
    MIXING:  cpu time    0.0014: real time    0.0014
    --------------------------------------------
      LOOP:  cpu time   18.5111: real time   18.6480

 eigenvalue-minimisations  :   724
 total energy-change (2. order) : 0.1100798E+00  (-0.1146122E-01)
 number of electron     563.9999989 magnetization 
 augmentation part      143.4330132 magnetization 

 Free energy of the ion-electron system (eV)
  ---------------------------------------------------
  alpha Z        PSCENC =      1482.04539224
  Ewald energy   TEWEN  =    -31315.04039852
  -Hartree energ DENC   =    -16697.60804793
  -exchange      EXHF   =      1501.30520113
  -V(xc)+E(xc)   XCENC  =      -594.61951319
  PAW double counting   =    148957.86827074  -147081.71782857
  entropy T*S    EENTRO =        -0.00000045
  eigenvalues    EBANDS =     -3569.14202689
  atomic energy  EATOM  =     47138.37786884
  Solvation  Ediel_sol  =         0.00000000
  ---------------------------------------------------
  free energy    TOTEN  =      -178.53108260 eV

  energy without entropy =     -178.53108215  energy(sigma->0) =     -178.53108238
  exchange ACFDT corr.  =         0.00000000  see jH, gK, PRB 81, 115126


--------------------------------------------------------------------------------------------------------




--------------------------------------- Iteration      1(  11)  ---------------------------------------


    POTLOK:  cpu time    0.2459: real time    0.2466
    SETDIJ:  cpu time    0.9251: real time    0.9272
     EDDAV:  cpu time   18.5392: real time   18.8632
       DOS:  cpu time    0.0010: real time    0.0010
    CHARGE:  cpu time    0.0720: real time    0.0721
    MIXING:  cpu time    0.0012: real time    0.0012
    --------------------------------------------
      LOOP:  cpu time   19.7844: real time   20.1114

 eigenvalue-minimisations  :   716
 total energy-change (2. order) : 0.2708586E-01  (-0.6448726E-02)
 number of electron     563.9999989 magnetization 
 augmentation part      143.3439384 magnetization 

 Free energy of the ion-electron system (eV)
  ---------------------------------------------------
  alpha Z        PSCENC =      1482.04539224
  Ewald energy   TEWEN  =    -31315.04039852
  -Hartree energ DENC   =    -16693.35165793
  -exchange      EXHF   =      1501.68919416
  -V(xc)+E(xc)   XCENC  =      -594.47577866
  PAW double counting   =    154037.18279019  -152161.18307527
  entropy T*S    EENTRO =        -0.00000022
  eigenvalues    EBANDS =     -3573.74833158
  atomic energy  EATOM  =     47138.37786884
  Solvation  Ediel_sol  =         0.00000000
  ---------------------------------------------------
  free energy    TOTEN  =      -178.50399674 eV

  energy without entropy =     -178.50399653  energy(sigma->0) =     -178.50399664
  exchange ACFDT corr.  =         0.00000000  see jH, gK, PRB 81, 115126


--------------------------------------------------------------------------------------------------------




--------------------------------------- Iteration      1(  12)  ---------------------------------------


    POTLOK:  cpu time    0.2443: real time    0.2469
    SETDIJ:  cpu time    0.9266: real time    0.9276
     EDDAV:  cpu time   17.6466: real time   17.8461
       DOS:  cpu time    0.0009: real time    0.0009
    CHARGE:  cpu time    0.0724: real time    0.0725
    MIXING:  cpu time    0.0012: real time    0.0012
    --------------------------------------------
      LOOP:  cpu time   18.8919: real time   19.0952

 eigenvalue-minimisations  :   780
 total energy-change (2. order) : 0.6424639E-02  (-0.1625742E-02)
 number of electron     563.9999988 magnetization 
 augmentation part      143.3022719 magnetization 

 Free energy of the ion-electron system (eV)
  ---------------------------------------------------
  alpha Z        PSCENC =      1482.04539224
  Ewald energy   TEWEN  =    -31315.04039852
  -Hartree energ DENC   =    -16690.76595523
  -exchange      EXHF   =      1502.03059841
  -V(xc)+E(xc)   XCENC  =      -594.38612985
  PAW double counting   =    157066.26982004  -155190.27662463
  entropy T*S    EENTRO =        -0.00000033
  eigenvalues    EBANDS =     -3576.75214308
  atomic energy  EATOM  =     47138.37786884
  Solvation  Ediel_sol  =         0.00000000
  ---------------------------------------------------
  free energy    TOTEN  =      -178.49757210 eV

  energy without entropy =     -178.49757178  energy(sigma->0) =     -178.49757194
  exchange ACFDT corr.  =         0.00000000  see jH, gK, PRB 81, 115126


--------------------------------------------------------------------------------------------------------




--------------------------------------- Iteration      1(  13)  ---------------------------------------


    POTLOK:  cpu time    0.2444: real time    0.2483
    SETDIJ:  cpu time    0.9534: real time    0.9571
     EDDAV:  cpu time   17.6545: real time   17.6878
       DOS:  cpu time    0.0050: real time    0.0050
    CHARGE:  cpu time    0.0735: real time    0.0735
    MIXING:  cpu time    0.0020: real time    0.0020
    --------------------------------------------
      LOOP:  cpu time   18.9327: real time   18.9737

 eigenvalue-minimisations  :   716
 total energy-change (2. order) : 0.3065401E-02  (-0.3963828E-03)
 number of electron     563.9999988 magnetization 
 augmentation part      143.2858733 magnetization 

 Free energy of the ion-electron system (eV)
  ---------------------------------------------------
  alpha Z        PSCENC =      1482.04539224
  Ewald energy   TEWEN  =    -31315.04039852
  -Hartree energ DENC   =    -16689.29006147
  -exchange      EXHF   =      1502.17135273
  -V(xc)+E(xc)   XCENC  =      -594.33202591
  PAW double counting   =    158876.06704115  -157000.05570060
  entropy T*S    EENTRO =        -0.00000085
  eigenvalues    EBANDS =     -3578.43797431
  atomic energy  EATOM  =     47138.37786884
  Solvation  Ediel_sol  =         0.00000000
  ---------------------------------------------------
  free energy    TOTEN  =      -178.49450670 eV

  energy without entropy =     -178.49450585  energy(sigma->0) =     -178.49450628
  exchange ACFDT corr.  =         0.00000000  see jH, gK, PRB 81, 115126


--------------------------------------------------------------------------------------------------------




--------------------------------------- Iteration      1(  14)  ---------------------------------------


    POTLOK:  cpu time    0.2518: real time    0.2534
    SETDIJ:  cpu time    0.9267: real time    0.9272
     EDDAV:  cpu time   18.9138: real time   19.2563
       DOS:  cpu time    0.0032: real time    0.0032
    CHARGE:  cpu time    0.0759: real time    0.0768
    MIXING:  cpu time    0.0031: real time    0.0031
    --------------------------------------------
      LOOP:  cpu time   20.1745: real time   20.5201

 eigenvalue-minimisations  :   732
 total energy-change (2. order) : 0.9045905E-03  (-0.2465722E-03)
 number of electron     563.9999988 magnetization 
 augmentation part      143.2755319 magnetization 

 Free energy of the ion-electron system (eV)
  ---------------------------------------------------
  alpha Z        PSCENC =      1482.04539224
  Ewald energy   TEWEN  =    -31315.04039852
  -Hartree energ DENC   =    -16688.51742540
  -exchange      EXHF   =      1502.19310222
  -V(xc)+E(xc)   XCENC  =      -594.30043682
  PAW double counting   =    159946.15260252  -158070.14543141
  entropy T*S    EENTRO =        -0.00000191
  eigenvalues    EBANDS =     -3579.25887388
  atomic energy  EATOM  =     47138.37786884
  Solvation  Ediel_sol  =         0.00000000
  ---------------------------------------------------
  free energy    TOTEN  =      -178.49360211 eV

  energy without entropy =     -178.49360020  energy(sigma->0) =     -178.49360116
  exchange ACFDT corr.  =         0.00000000  see jH, gK, PRB 81, 115126


--------------------------------------------------------------------------------------------------------




--------------------------------------- Iteration      1(  15)  ---------------------------------------


    POTLOK:  cpu time    0.2540: real time    0.2619
    SETDIJ:  cpu time    0.9245: real time    0.9332
     EDDAV:  cpu time   18.2020: real time   18.4456
       DOS:  cpu time    0.0059: real time    0.0059
    CHARGE:  cpu time    0.0751: real time    0.0752
    MIXING:  cpu time    0.0012: real time    0.0012
    --------------------------------------------
      LOOP:  cpu time   19.4626: real time   19.7229

 eigenvalue-minimisations  :   740
 total energy-change (2. order) : 0.2986882E-04  (-0.1181168E-03)
 number of electron     563.9999988 magnetization 
 augmentation part      143.2693552 magnetization 

 Free energy of the ion-electron system (eV)
  ---------------------------------------------------
  alpha Z        PSCENC =      1482.04539224
  Ewald energy   TEWEN  =    -31315.04039852
  -Hartree energ DENC   =    -16688.14107951
  -exchange      EXHF   =      1502.17138927
  -V(xc)+E(xc)   XCENC  =      -594.28452706
  PAW double counting   =    160576.84649429  -158700.86332358
  entropy T*S    EENTRO =        -0.00000286
  eigenvalues    EBANDS =     -3579.60538536
  atomic energy  EATOM  =     47138.37786884
  Solvation  Ediel_sol  =         0.00000000
  ---------------------------------------------------
  free energy    TOTEN  =      -178.49357224 eV

  energy without entropy =     -178.49356939  energy(sigma->0) =     -178.49357082
  exchange ACFDT corr.  =         0.00000000  see jH, gK, PRB 81, 115126


--------------------------------------------------------------------------------------------------------




--------------------------------------- Iteration      1(  16)  ---------------------------------------


    POTLOK:  cpu time    0.2512: real time    0.2551
    SETDIJ:  cpu time    0.9251: real time    0.9291
     EDDAV:  cpu time   18.1550: real time   18.3108
       DOS:  cpu time    0.0008: real time    0.0008
    CHARGE:  cpu time    0.0741: real time    0.0742
    MIXING:  cpu time    0.0013: real time    0.0013
    --------------------------------------------
      LOOP:  cpu time   19.4075: real time   19.5712

 eigenvalue-minimisations  :   724
 total energy-change (2. order) :-0.4684225E-04  (-0.3392207E-04)
 number of electron     563.9999988 magnetization 
 augmentation part      143.2657582 magnetization 

 Free energy of the ion-electron system (eV)
  ---------------------------------------------------
  alpha Z        PSCENC =      1482.04539224
  Ewald energy   TEWEN  =    -31315.04039852
  -Hartree energ DENC   =    -16687.94624320
  -exchange      EXHF   =      1502.14484180
  -V(xc)+E(xc)   XCENC  =      -594.27778211
  PAW double counting   =    160956.35018791  -159080.39648125
  entropy T*S    EENTRO =        -0.00000312
  eigenvalues    EBANDS =     -3579.75100169
  atomic energy  EATOM  =     47138.37786884
  Solvation  Ediel_sol  =         0.00000000
  ---------------------------------------------------
  free energy    TOTEN  =      -178.49361909 eV

  energy without entropy =     -178.49361597  energy(sigma->0) =     -178.49361753
  exchange ACFDT corr.  =         0.00000000  see jH, gK, PRB 81, 115126


--------------------------------------------------------------------------------------------------------




--------------------------------------- Iteration      1(  17)  ---------------------------------------


    POTLOK:  cpu time    0.2469: real time    0.2493
    SETDIJ:  cpu time    0.9278: real time    0.9282
     EDDAV:  cpu time   18.7119: real time   19.0870
       DOS:  cpu time    0.0084: real time    0.0086
    CHARGE:  cpu time    0.0729: real time    0.0743
    MIXING:  cpu time    0.0012: real time    0.0018
    --------------------------------------------
      LOOP:  cpu time   19.9692: real time   20.3493

 eigenvalue-minimisations  :   732
 total energy-change (2. order) :-0.2956884E-04  (-0.1292136E-04)
 number of electron     563.9999988 magnetization 
 augmentation part      143.2634338 magnetization 

 Free energy of the ion-electron system (eV)
  ---------------------------------------------------
  alpha Z        PSCENC =      1482.04539224
  Ewald energy   TEWEN  =    -31315.04039852
  -Hartree energ DENC   =    -16687.82436791
  -exchange      EXHF   =      1502.13162803
  -V(xc)+E(xc)   XCENC  =      -594.27519495
  PAW double counting   =    161190.07064174  -159314.14103060
  entropy T*S    EENTRO =        -0.00000298
  eigenvalues    EBANDS =     -3579.83818456
  atomic energy  EATOM  =     47138.37786884
  Solvation  Ediel_sol  =         0.00000000
  ---------------------------------------------------
  free energy    TOTEN  =      -178.49364866 eV

  energy without entropy =     -178.49364567  energy(sigma->0) =     -178.49364716
  exchange ACFDT corr.  =         0.00000000  see jH, gK, PRB 81, 115126


--------------------------------------------------------------------------------------------------------




--------------------------------------- Iteration      1(  18)  ---------------------------------------


    POTLOK:  cpu time    0.2530: real time    0.2549
    SETDIJ:  cpu time    0.9301: real time    0.9322
     EDDAV:  cpu time   18.2127: real time   18.3659
       DOS:  cpu time    0.0009: real time    0.0009
    CHARGE:  cpu time    0.0732: real time    0.0732
    MIXING:  cpu time    0.0013: real time    0.0013
    --------------------------------------------
      LOOP:  cpu time   19.4711: real time   19.6282

 eigenvalue-minimisations  :   668
 total energy-change (2. order) :-0.2938419E-04  (-0.6512455E-05)
 number of electron     563.9999988 magnetization 
 augmentation part      143.2621032 magnetization 

 Free energy of the ion-electron system (eV)
  ---------------------------------------------------
  alpha Z        PSCENC =      1482.04539224
  Ewald energy   TEWEN  =    -31315.04039852
  -Hartree energ DENC   =    -16687.73918904
  -exchange      EXHF   =      1502.12914963
  -V(xc)+E(xc)   XCENC  =      -594.27422904
  PAW double counting   =    161332.85660322  -159456.94317462
  entropy T*S    EENTRO =        -0.00000286
  eigenvalues    EBANDS =     -3579.90569789
  atomic energy  EATOM  =     47138.37786884
  Solvation  Ediel_sol  =         0.00000000
  ---------------------------------------------------
  free energy    TOTEN  =      -178.49367804 eV

  energy without entropy =     -178.49367518  energy(sigma->0) =     -178.49367661
  exchange ACFDT corr.  =         0.00000000  see jH, gK, PRB 81, 115126


--------------------------------------------------------------------------------------------------------




--------------------------------------- Iteration      1(  19)  ---------------------------------------


    POTLOK:  cpu time    0.2462: real time    0.2491
    SETDIJ:  cpu time    0.9267: real time    0.9271
     EDDAV:  cpu time   17.9764: real time   18.2884
       DOS:  cpu time    0.0046: real time    0.0048
    CHARGE:  cpu time    0.0751: real time    0.0781
    MIXING:  cpu time    0.0014: real time    0.0014
    --------------------------------------------
      LOOP:  cpu time   19.2305: real time   19.5489

 eigenvalue-minimisations  :   588
 total energy-change (2. order) :-0.1981868E-04  (-0.2657196E-05)
 number of electron     563.9999988 magnetization 
 augmentation part      143.2615150 magnetization 

 Free energy of the ion-electron system (eV)
  ---------------------------------------------------
  alpha Z        PSCENC =      1482.04539224
  Ewald energy   TEWEN  =    -31315.04039852
  -Hartree energ DENC   =    -16687.68007483
  -exchange      EXHF   =      1502.13000086
  -V(xc)+E(xc)   XCENC  =      -594.27383872
  PAW double counting   =    161419.53104830  -159543.62782096
  entropy T*S    EENTRO =        -0.00000288
  eigenvalues    EBANDS =     -3579.95587218
  atomic energy  EATOM  =     47138.37786884
  Solvation  Ediel_sol  =         0.00000000
  ---------------------------------------------------
  free energy    TOTEN  =      -178.49369786 eV

  energy without entropy =     -178.49369498  energy(sigma->0) =     -178.49369642
  exchange ACFDT corr.  =         0.00000000  see jH, gK, PRB 81, 115126


--------------------------------------------------------------------------------------------------------




--------------------------------------- Iteration      1(  20)  ---------------------------------------


    POTLOK:  cpu time    0.2613: real time    0.2624
    SETDIJ:  cpu time    0.9278: real time    0.9305
     EDDAV:  cpu time   17.7783: real time   18.0450
       DOS:  cpu time    0.0010: real time    0.0010
    CHARGE:  cpu time    0.0726: real time    0.0729
    MIXING:  cpu time    0.0012: real time    0.0012
    --------------------------------------------
      LOOP:  cpu time   19.0421: real time   19.3130

 eigenvalue-minimisations  :   532
 total energy-change (2. order) :-0.1093897E-04  (-0.1339815E-05)
 number of electron     563.9999988 magnetization 
 augmentation part      143.2611641 magnetization 

 Free energy of the ion-electron system (eV)
  ---------------------------------------------------
  alpha Z        PSCENC =      1482.04539224
  Ewald energy   TEWEN  =    -31315.04039852
  -Hartree energ DENC   =    -16687.64159563
  -exchange      EXHF   =      1502.13038845
  -V(xc)+E(xc)   XCENC  =      -594.27365600
  PAW double counting   =    161471.48980616  -159595.59321653
  entropy T*S    EENTRO =        -0.00000297
  eigenvalues    EBANDS =     -3579.98829484
  atomic energy  EATOM  =     47138.37786884
  Solvation  Ediel_sol  =         0.00000000
  ---------------------------------------------------
  free energy    TOTEN  =      -178.49370880 eV

  energy without entropy =     -178.49370583  energy(sigma->0) =     -178.49370731
  exchange ACFDT corr.  =         0.00000000  see jH, gK, PRB 81, 115126


--------------------------------------------------------------------------------------------------------




--------------------------------------- Iteration      1(  21)  ---------------------------------------


    POTLOK:  cpu time    0.2451: real time    0.2478
    SETDIJ:  cpu time    0.9275: real time    0.9280
     EDDAV:  cpu time   17.2518: real time   17.4178
       DOS:  cpu time    0.0008: real time    0.0008
    CHARGE:  cpu time    0.0737: real time    0.0737
    MIXING:  cpu time    0.0012: real time    0.0012
    --------------------------------------------
      LOOP:  cpu time   18.5001: real time   18.6693

 eigenvalue-minimisations  :   468
 total energy-change (2. order) :-0.6652124E-05  (-0.7822908E-06)
 number of electron     563.9999988 magnetization 
 augmentation part      143.2608866 magnetization 

 Free energy of the ion-electron system (eV)
  ---------------------------------------------------
  alpha Z        PSCENC =      1482.04539224
  Ewald energy   TEWEN  =    -31315.04039852
  -Hartree energ DENC   =    -16687.61866483
  -exchange      EXHF   =      1502.12982581
  -V(xc)+E(xc)   XCENC  =      -594.27361412
  PAW double counting   =    161502.55846599  -159626.66652647
  entropy T*S    EENTRO =        -0.00000307
  eigenvalues    EBANDS =     -3580.00606131
  atomic energy  EATOM  =     47138.37786884
  Solvation  Ediel_sol  =         0.00000000
  ---------------------------------------------------
  free energy    TOTEN  =      -178.49371545 eV

  energy without entropy =     -178.49371238  energy(sigma->0) =     -178.49371392
  exchange ACFDT corr.  =         0.00000000  see jH, gK, PRB 81, 115126


--------------------------------------------------------------------------------------------------------




--------------------------------------- Iteration      1(  22)  ---------------------------------------


    POTLOK:  cpu time    0.2447: real time    0.2468
    SETDIJ:  cpu time    0.9259: real time    0.9265
     EDDAV:  cpu time   17.6179: real time   17.8394
       DOS:  cpu time    0.0009: real time    0.0009
    --------------------------------------------
      LOOP:  cpu time   18.7894: real time   19.0136

 eigenvalue-minimisations  :   436
 total energy-change (2. order) :-0.4088084E-05  (-0.4480610E-06)
 number of electron     563.9999988 magnetization 
 augmentation part      143.2608866 magnetization 

 Free energy of the ion-electron system (eV)
  ---------------------------------------------------
  alpha Z        PSCENC =      1482.04539224
  Ewald energy   TEWEN  =    -31315.04039852
  -Hartree energ DENC   =    -16687.60626660
  -exchange      EXHF   =      1502.12883799
  -V(xc)+E(xc)   XCENC  =      -594.27367759
  PAW double counting   =    161521.56804693  -159645.67960665
  entropy T*S    EENTRO =        -0.00000313
  eigenvalues    EBANDS =     -3580.01391306
  atomic energy  EATOM  =     47138.37786884
  Solvation  Ediel_sol  =         0.00000000
  ---------------------------------------------------
  free energy    TOTEN  =      -178.49371954 eV

  energy without entropy =     -178.49371641  energy(sigma->0) =     -178.49371797
  exchange ACFDT corr.  =         0.00000000  see jH, gK, PRB 81, 115126


--------------------------------------------------------------------------------------------------------




 average (electrostatic) potential at core
  the test charge radii are     1.0698  1.1897
  (the norm of the test charge is              1.0000)
       1 -30.6683       2 -30.9135       3 -30.6480       4 -30.9169       5 -31.0739
       6 -30.5581       7 -31.7881       8 -30.5979       9 -30.2822      10 -30.8131
      11 -30.3692      12 -31.2942      13 -30.2434      14 -30.9819      15 -31.2031
      16 -30.9738      17 -30.5575      18 -31.2636      19 -30.4879      20 -30.7738
      21 -30.4715      22 -30.7709      23 -30.3114      24 -30.3675      25 -30.9543
      26 -31.0718      27 -31.3527      28 -31.2095      29 -30.5417      30 -30.5273
      31 -30.7146      32 -86.3444      33 -84.6871      34 -87.1614      35 -85.9026
      36 -86.3263      37 -86.2152      38 -86.3724      39 -86.1993      40 -86.9779
      41 -85.3576      42 -86.1412      43 -86.3769      44 -86.9412      45 -86.0685
      46 -86.6584      47 -86.6826      48 -86.2648      49 -85.2144      50 -86.6111
      51 -87.3771      52 -86.3351      53 -86.0398      54 -86.2327      55 -85.2422
      56 -87.2249      57 -85.5835      58 -87.1054      59 -86.8622      60 -85.2300
      61 -86.3711      62 -86.3559      63 -85.2052
 
 
 
 E-fermi :   2.6537     XC(G=0):  -6.4863     alpha+bet : -7.1524


 k-point     1 :       0.0000    0.0000    0.0000
  band No.  band energies     occupation 
      1     -12.8851      2.00000
      2     -12.5754      2.00000
      3     -12.4621      2.00000
      4     -11.9688      2.00000
      5     -11.9239      2.00000
      6     -11.8855      2.00000
      7     -11.7646      2.00000
      8     -11.6857      2.00000
      9     -11.5365      2.00000
     10     -11.5089      2.00000
     11     -11.2917      2.00000
     12     -11.1492      2.00000
     13     -11.1289      2.00000
     14     -11.0590      2.00000
     15     -11.0109      2.00000
     16     -10.9985      2.00000
     17     -10.9553      2.00000
     18     -10.9292      2.00000
     19     -10.8695      2.00000
     20     -10.8036      2.00000
     21     -10.6939      2.00000
     22     -10.6408      2.00000
     23     -10.5776      2.00000
     24     -10.5433      2.00000
[...]
     0.000000000  0.000000000 13.086768000     0.000000000  0.000000000  0.076413061

  length of vectors
    13.086768000 13.086768000 13.086768000     0.076413061  0.076413061  0.076413061


 FORCES acting on ions
    electron-ion (+dipol)            ewald-force                    non-local-force                 convergence-correction
 -----------------------------------------------------------------------------------------------
   0.290E+00 0.950E-01 0.874E+00   -.274E+00 -.103E+00 -.304E+00   0.411E-02 -.111E-01 -.563E+00   0.941E-03 -.235E-02 0.619E-03
   0.695E+00 -.276E+00 -.132E+02   -.716E+00 0.262E+00 0.139E+02   0.512E-01 -.218E-01 -.680E+00   0.217E-02 -.323E-02 0.224E-02
   0.410E+00 -.973E+00 0.920E+01   -.444E+00 0.967E+00 -.901E+01   0.542E-01 -.503E-01 -.190E+00   -.834E-03 0.196E-02 -.153E-02
   -.493E+00 -.377E+00 -.139E+02   0.493E+00 0.373E+00 0.145E+02   0.190E-01 -.102E-01 -.623E+00   0.711E-03 0.233E-03 0.491E-03
   0.114E+01 -.861E-01 0.839E+01   -.111E+01 0.926E-01 -.824E+01   0.342E-03 -.537E-01 -.153E+00   -.142E-02 -.104E-02 0.727E-04
   -.353E+00 0.857E-01 -.296E+02   0.332E+00 -.969E-01 0.292E+02   0.264E-01 -.366E-02 0.324E+00   -.242E-02 -.360E-03 -.408E-03
   -.209E+00 -.474E+00 0.166E+02   0.203E+00 0.497E+00 -.168E+02   0.241E-01 -.755E-01 0.160E+00   -.706E-04 0.974E-03 -.212E-03
   0.534E+02 0.453E+01 0.801E+02   -.526E+02 -.530E+01 -.796E+02   -.688E+00 0.745E+00 -.438E+00   0.116E-02 0.417E-03 0.180E-02
   0.268E+02 0.251E+02 -.587E+02   -.255E+02 -.267E+02 0.596E+02   -.119E+01 0.161E+01 -.898E+00   0.145E-02 -.145E-02 -.197E-02
   -.538E+02 -.503E+01 0.810E+02   0.530E+02 0.577E+01 -.805E+02   0.772E+00 -.723E+00 -.501E+00   -.861E-04 0.123E-02 0.390E-02
   -.266E+02 -.247E+02 -.587E+02   0.253E+02 0.264E+02 0.596E+02   0.123E+01 -.156E+01 -.833E+00   0.116E-02 0.378E-02 -.128E-02
   -.229E+02 0.998E+01 0.215E+02   0.225E+02 -.105E+02 -.215E+02   0.410E+00 0.515E+00 -.123E-01   -.179E-02 0.103E-05 0.229E-03
   -.357E+01 0.241E+02 -.966E+01   0.330E+01 -.243E+02 0.929E+01   0.259E+00 0.234E+00 0.354E+00   -.219E-04 0.180E-02 -.141E-02
   0.221E+02 -.988E+01 0.209E+02   -.217E+02 0.104E+02 -.209E+02   -.372E+00 -.499E+00 -.364E-01   -.333E-03 0.148E-02 0.149E-02
   0.467E+01 -.237E+02 -.837E+01   -.439E+01 0.240E+02 0.801E+01   -.248E+00 -.240E+00 0.330E+00   -.288E-02 0.172E-02 0.231E-02
   0.508E+01 0.541E+02 0.807E+02   -.583E+01 -.533E+02 -.802E+02   0.730E+00 -.763E+00 -.456E+00   -.217E-02 -.493E-04 -.298E-03
   0.246E+02 0.269E+02 -.590E+02   -.262E+02 -.256E+02 0.599E+02   0.157E+01 -.123E+01 -.827E+00   -.159E-02 -.790E-03 -.190E-02
   0.944E+01 -.227E+02 0.212E+02   -.100E+02 0.224E+02 -.212E+02   0.530E+00 0.373E+00 -.200E-01   0.670E-03 -.478E-03 -.653E-03
   0.239E+02 -.465E+01 -.840E+01   -.242E+02 0.438E+01 0.806E+01   0.220E+00 0.243E+00 0.311E+00   0.231E-02 0.177E-02 0.153E-02
   -.450E+01 -.533E+02 0.803E+02   0.528E+01 0.525E+02 -.798E+02   -.763E+00 0.711E+00 -.437E+00   -.125E-02 -.525E-03 -.302E-03
   -.248E+02 -.267E+02 -.592E+02   0.264E+02 0.254E+02 0.601E+02   -.161E+01 0.120E+01 -.869E+00   0.339E-03 -.146E-02 -.190E-02
   -.106E+02 0.223E+02 0.214E+02   0.111E+02 -.219E+02 -.214E+02   -.487E+00 -.393E+00 -.685E-01   0.495E-03 0.236E-02 0.429E-03
   -.234E+02 0.403E+01 -.842E+01   0.236E+02 -.372E+01 0.808E+01   -.252E+00 -.295E+00 0.315E+00   -.196E-02 0.362E-03 -.165E-02
   0.366E+02 0.370E+02 -.200E+02   -.378E+02 -.382E+02 0.187E+02   0.115E+01 0.115E+01 0.129E+01   0.136E-02 0.227E-02 0.146E-02
   -.141E+00 0.442E+00 0.920E+01   -.155E+00 -.782E+00 -.919E+01   0.288E+00 0.330E+00 0.644E-03   0.925E-05 0.965E-03 0.731E-03
   0.921E+02 -.930E+02 -.770E+02   -.916E+02 0.925E+02 0.760E+02   -.527E+00 0.487E+00 0.103E+01   -.121E-02 -.402E-02 -.322E-02
   0.505E+01 -.478E+01 0.158E+02   -.522E+01 0.495E+01 -.156E+02   0.157E+00 -.168E+00 -.210E+00   -.164E-03 -.251E-02 0.266E-02
   -.924E+02 0.929E+02 -.782E+02   0.919E+02 -.924E+02 0.771E+02   0.464E+00 -.462E+00 0.102E+01   -.119E-02 0.987E-03 0.464E-03
   -.444E+01 0.455E+01 0.152E+02   0.464E+01 -.474E+01 -.150E+02   -.195E+00 0.157E+00 -.198E+00   0.519E-03 -.121E-03 -.139E-02
   -.370E+02 -.370E+02 -.198E+02   0.382E+02 0.382E+02 0.185E+02   -.116E+01 -.114E+01 0.128E+01   -.672E-03 -.936E-03 -.836E-03
   -.497E+00 0.537E+00 0.988E+01   0.832E+00 -.234E+00 -.985E+01   -.329E+00 -.293E+00 -.320E-01   0.157E-02 -.266E-02 0.155E-02
   0.638E-01 0.956E+00 -.220E+01   0.246E+00 -.719E+00 0.315E+01   -.287E+00 -.213E+00 -.878E+00   -.698E-03 -.261E-03 0.305E-03
   0.739E+02 0.734E+02 -.810E+02   -.782E+02 -.776E+02 0.852E+02   0.393E+01 0.387E+01 -.386E+01   -.100E-02 -.185E-02 -.829E-03
   -.142E+01 -.123E+02 0.221E+02   0.133E+01 0.125E+02 -.221E+02   0.821E-01 -.188E+00 -.245E-03   -.636E-03 0.687E-04 0.112E-02
   0.324E+02 -.238E+02 -.197E+02   -.343E+02 0.236E+02 0.188E+02   0.173E+01 0.179E+00 0.791E+00   0.326E-02 0.165E-02 -.286E-03
   -.121E+02 -.287E+01 0.239E+02   0.123E+02 0.287E+01 -.240E+02   -.179E+00 0.348E-02 0.584E-01   0.183E-03 -.234E-03 0.373E-03
   -.238E+02 0.326E+02 -.194E+02   0.237E+02 -.345E+02 0.185E+02   0.181E+00 0.176E+01 0.853E+00   -.486E-03 -.155E-03 -.162E-03
   0.241E+01 0.242E+01 0.159E+02   -.251E+01 -.256E+01 -.159E+02   0.918E-01 0.118E+00 0.671E-01   -.183E-03 -.420E-03 0.586E-03
   -.552E+01 -.645E+01 -.115E+02   0.563E+01 0.662E+01 0.116E+02   -.104E+00 -.155E+00 -.691E-01   -.106E-02 0.130E-03 -.923E-03
   0.140E+02 0.190E+02 0.103E+02   -.137E+02 -.200E+02 -.106E+02   -.277E+00 0.942E+00 0.250E+00   0.115E-03 0.105E-02 0.514E-04
   0.186E+02 -.421E+01 -.348E+01   -.192E+02 0.414E+01 0.353E+01   0.518E+00 0.631E-01 -.504E-01   0.630E-03 -.581E-03 -.882E-04
   -.554E+00 0.991E+00 0.109E+03   0.470E+01 -.511E+01 -.116E+03   -.377E+01 0.375E+01 0.570E+01   0.450E-03 0.198E-03 0.870E-03
   -.756E+01 0.722E+01 -.214E+02   0.784E+01 -.745E+01 0.219E+02   -.261E+00 0.224E+00 -.472E+00   -.148E-02 -.462E-03 0.474E-03
   -.205E+02 0.211E+02 -.225E+02   0.202E+02 -.208E+02 0.239E+02   0.232E+00 -.199E+00 -.128E+01   -.742E-03 0.737E-03 -.907E-03
   -.686E+01 0.641E+01 0.360E+01   0.690E+01 -.648E+01 -.346E+01   -.376E-01 0.684E-01 -.132E+00   -.688E-03 0.585E-03 0.428E-03
   -.176E+02 -.136E+02 0.103E+02   0.185E+02 0.133E+02 -.106E+02   -.891E+00 0.322E+00 0.259E+00   -.282E-03 0.676E-04 0.109E-02
   0.402E+01 -.191E+02 -.335E+01   -.393E+01 0.197E+02 0.340E+01   -.767E-01 -.550E+00 -.427E-01   -.701E-03 -.788E-03 0.924E-03
   0.171E+02 0.137E+02 0.112E+02   -.180E+02 -.134E+02 -.116E+02   0.855E+00 -.302E+00 0.306E+00   0.284E-04 0.618E-05 0.254E-03
   -.468E+01 0.205E+02 -.354E+01   0.468E+01 -.211E+02 0.362E+01   0.624E-02 0.623E+00 -.775E-01   -.562E-03 0.354E-04 -.227E-03
   0.200E+02 -.198E+02 -.233E+02   -.198E+02 0.195E+02 0.247E+02   -.238E+00 0.282E+00 -.132E+01   -.848E-03 -.623E-03 -.107E-02
   0.657E+01 -.688E+01 0.474E+01   -.662E+01 0.694E+01 -.476E+01   0.425E-01 -.550E-01 0.123E-01   -.837E-03 0.523E-03 0.452E-03
   0.143E+01 -.140E+01 0.110E+03   -.560E+01 0.559E+01 -.116E+03   0.380E+01 -.381E+01 0.555E+01   0.745E-03 -.579E-03 0.105E-03
   0.645E+01 -.683E+01 -.208E+02   -.666E+01 0.705E+01 0.213E+02   0.192E+00 -.207E+00 -.430E+00   0.148E-02 -.288E-03 -.466E-04
   -.134E+02 -.174E+02 0.102E+02   0.131E+02 0.183E+02 -.105E+02   0.296E+00 -.866E+00 0.290E+00   -.692E-03 -.563E-03 0.975E-03
   -.203E+02 0.400E+01 -.377E+01   0.210E+02 -.395E+01 0.389E+01   -.631E+00 -.457E-01 -.996E-01   -.188E-03 0.796E-03 -.139E-02
   -.236E+01 -.305E+01 0.176E+02   0.241E+01 0.319E+01 -.178E+02   -.550E-01 -.125E+00 0.191E+00   -.659E-03 0.234E-03 0.214E-03
   0.663E+01 0.563E+01 -.113E+02   -.682E+01 -.571E+01 0.114E+02   0.160E+00 0.656E-01 -.657E-01   -.281E-03 0.198E-02 -.426E-03
   0.123E+02 0.246E+01 0.241E+02   -.125E+02 -.245E+01 -.242E+02   0.186E+00 -.754E-02 0.106E+00   0.107E-02 -.454E-03 0.530E-03
   0.231E+02 -.327E+02 -.185E+02   -.229E+02 0.346E+02 0.175E+02   -.217E+00 -.175E+01 0.881E+00   0.103E-03 -.248E-02 -.199E-02
   0.332E+01 0.118E+02 0.234E+02   -.342E+01 -.120E+02 -.234E+02   0.832E-01 0.182E+00 0.408E-01   0.558E-03 0.460E-03 0.540E-03
   -.325E+02 0.233E+02 -.191E+02   0.344E+02 -.230E+02 0.182E+02   -.177E+01 -.212E+00 0.865E+00   0.355E-03 -.447E-03 -.393E-03
   -.109E+01 -.292E+00 -.237E+01   0.883E+00 0.234E-01 0.331E+01   0.188E+00 0.243E+00 -.878E+00   0.206E-02 -.547E-03 0.383E-03
   -.728E+02 -.738E+02 -.810E+02   0.770E+02 0.780E+02 0.852E+02   -.386E+01 -.391E+01 -.384E+01   0.117E-02 -.836E-03 -.154E-02
 -----------------------------------------------------------------------------------------------
   0.620E-01 -.103E+00 -.150E+01   0.114E-12 0.284E-13 -.142E-13   0.537E-01 -.144E+00 0.110E+01   -.502E-02 -.273E-02 0.244E-02
 
 
 POSITION                                       TOTAL-FORCE (eV/Angst)
 -----------------------------------------------------------------------------------
      0.02726     13.05791      6.65810        -0.001398     -0.000096      0.000474
      0.02522      6.51461      0.11837        -0.001095      0.000106      0.000685
      0.01212      6.50392      6.40759        -0.000876     -0.000309      0.000209
      6.57154     13.05436      0.11741         0.000790      0.000095      0.000022
      6.56216     13.05161      6.39915         0.000203      0.000276      0.001128
      6.56080      6.51717     -0.03600        -0.001350      0.000130     -0.000609
      6.55777      6.50394      6.53150         0.000791     -0.001061      0.000358
      0.11523      3.07597      3.32530        -0.000274      0.000598      0.000019
      0.14314      3.16352      9.79475         0.002565      0.001423      0.000040
     -0.08414      9.95945      3.29512        -0.000347     -0.000430     -0.000196
     12.99120      9.87453      9.81074        -0.001903     -0.000129      0.000302
      6.52237      3.18967      3.22517         0.000356     -0.000614     -0.000354
      6.55634      3.22055      9.78796         0.000149     -0.000218      0.000561
      6.60471      9.83289      3.23184        -0.000399      0.000348      0.000081
      6.55728      9.81282      9.75903        -0.002364      0.002270     -0.001098
      3.12290      0.08070      3.29567         0.000044     -0.000628      0.000627
      3.20288      0.10227      9.81108         0.001666     -0.000395     -0.002769
      3.21856      6.48236      3.22777        -0.000983     -0.000081     -0.000630
      3.26245      6.53200      9.76671        -0.000318     -0.000096     -0.000591
     10.00073     -0.13535      3.31566        -0.000567      0.000167      0.000078
      9.91779     12.93578      9.79277        -0.000261      0.000241     -0.000036
      9.88297      6.55123      3.22216        -0.001031      0.000575     -0.000189
      9.85429      6.51569      9.77863        -0.000015     -0.000044     -0.000976
      3.22596      3.18929     -0.18821         0.000945      0.000933     -0.000069
      3.39912      3.33917      6.62097        -0.001502     -0.000580      0.000655
      3.62767      9.46822     12.66144        -0.000484      0.000403      0.001176
      3.27733      9.80197      6.47935        -0.000551     -0.000373      0.001229
      9.51576      3.57112     12.64654        -0.000625     -0.001052      0.000465
      9.82532      3.23355      6.50005         0.000873     -0.001040      0.000644
      9.89162      9.84598     -0.19328        -0.001340      0.000164      0.000356
      9.74962      9.68455      6.62255        -0.002034     -0.000488      0.001466
      1.71483      1.65720      5.12620        -0.004022      0.004016      0.002877
      1.53212      1.49992     11.51097         0.004709      0.004843     -0.000228
      1.62105      8.22141      4.78699         0.000579      0.001984      0.001265
      1.57860      8.12937     11.41931         0.002025      0.005055      0.001051
      8.26339      1.58560      4.78392        -0.001843     -0.001068     -0.001082
      8.17274      1.52102     11.40535         0.002859      0.002867      0.003121
      8.17908      8.12190      4.86927         0.003559     -0.004130      0.000894
      8.17952      8.14771     11.39329        -0.002754     -0.003740     -0.001043
      1.65208      4.78525      1.62286        -0.002716     -0.003294      0.002790
      1.63452      4.92872      8.12902        -0.001304     -0.001364     -0.002019
      0.98177     12.10306      1.70378        -0.000860     -0.002769     -0.001790
      1.69356     11.38907      8.19946        -0.003123      0.003691     -0.000265
      8.19346      4.87864      1.62185        -0.004732     -0.005250     -0.003428
      8.19986      4.86848      8.15905         0.001915      0.001817     -0.002473
      8.29179     11.41135      1.62068         0.004617      0.002336      0.001552
      8.15170     11.44956      8.12374         0.003064     -0.001425     -0.003930
      4.84099      1.61623      1.60834         0.006922     -0.001526     -0.005248
      4.98370      1.57988      8.13542         0.002901     -0.000152     -0.001057
      4.92480      8.14452      1.63480         0.002236     -0.005773     -0.005014
      4.90952      8.16858      8.13243        -0.005144      0.002201     -0.000683
     12.12443      0.95340      1.71951        -0.000974      0.000838      0.002101
     11.43550      1.64505      8.18898        -0.001239     -0.000887      0.001642
     11.45956      8.23791      1.61313         0.003897      0.000238      0.001953
     11.50136      8.09795      8.14533        -0.001468     -0.004721      0.005018
      4.94082      4.90636      4.84817        -0.003520      0.002121     -0.000207
      4.92474      4.90050     11.39877        -0.005844     -0.000307      0.001354
      4.85538     11.44667      4.77581         0.003611      0.002505     -0.005665
      4.96200     11.50957     11.40355         0.005324      0.002931      0.007484
     11.47349      4.80647      4.79088        -0.001207      0.003837      0.004326
     11.56260      4.91593     11.40349        -0.000278      0.001667      0.000422
     11.42720     11.36978      5.12587         0.002901     -0.002936     -0.006949
     11.57828     11.53772     11.50213         0.001246     -0.003699      0.000174
 -----------------------------------------------------------------------------------
    total drift:                               -0.026265      0.000986     -0.089476


--------------------------------------------------------------------------------------------------------



  FREE ENERGIE OF THE ION-ELECTRON SYSTEM (eV)
  ---------------------------------------------------
  free  energy   TOTEN  =      -206.43254281 eV

  energy  without entropy=     -206.43254281  energy(sigma->0) =     -206.43254281
 
 d Force = 0.1246810E-04[ 0.169E-05, 0.232E-04]  d Energy = 0.1134425E-04 0.112E-05
 d Force = 0.5589715E-02[ 0.555E-02, 0.563E-02]  d Ewald  = 0.5589715E-02 0.124E-09


--------------------------------------------------------------------------------------------------------


    POTLOK:  cpu time    1.1535: real time    1.1725


--------------------------------------------------------------------------------------------------------


 Conjugate gradient step on ions:
 trial-energy change:   -0.000011  1 .order   -0.000012   -0.000023   -0.000002
  (g-gl).g = 0.133E-04      g.g   = 0.222E-04  gl.gl    = 0.293E-04
 g(Force)  = 0.222E-04   g(Stress)= 0.000E+00 ortho     = 0.766E-06
 gamma     =   0.45430
 trial     =   1.03171
 opt step  =   1.11282  (harmonic =   1.11282) maximal distance =0.00026535
 next E    =  -206.432544   (d E  =  -0.00001)


--------------------------------------------------------------------------------------------------------


  
 reached required accuracy - stopping structural energy minimisation
     LOOP+:  cpu time   92.8551: real time   94.1338
    4ORBIT:  cpu time    0.0000: real time    0.0000
 


 total charge     
 
# of ion       s       p       d       tot
------------------------------------------
    1        0.420   0.300   9.591  10.311
    2        0.420   0.292   9.592  10.303
    3        0.417   0.285   9.592  10.295
    4        0.419   0.291   9.592  10.302
    5        0.418   0.287   9.592  10.296
    6        0.421   0.295   9.590  10.306
    7        0.420   0.297   9.591  10.309
    8        0.423   0.294   9.589  10.306
    9        0.425   0.292   9.591  10.308
   10        0.423   0.293   9.589  10.305
   11        0.425   0.292   9.591  10.308
   12        0.420   0.292   9.592  10.303
   13        0.421   0.297   9.591  10.308
   14        0.419   0.291   9.592  10.302
   15        0.421   0.297   9.591  10.308
   16        0.423   0.294   9.589  10.306
   17        0.425   0.290   9.591  10.306
   18        0.420   0.293   9.592  10.305
   19        0.421   0.296   9.591  10.308
   20        0.423   0.294   9.589  10.306
   21        0.425   0.292   9.591  10.308
   22        0.419   0.292   9.592  10.303
   23        0.421   0.297   9.591  10.309
   24        0.425   0.292   9.590  10.308
   25        0.425   0.308   9.591  10.323
   26        0.462   0.276   9.586  10.324
   27        0.419   0.292   9.592  10.303
   28        0.461   0.274   9.586  10.321
   29        0.419   0.293   9.592  10.303
   30        0.425   0.293   9.590  10.308
   31        0.425   0.307   9.591  10.323
   32        1.290   2.318   0.020   3.628
   33        1.307   2.264   0.019   3.590
   34        1.289   2.295   0.017   3.601
   35        1.291   2.298   0.018   3.607
   36        1.289   2.296   0.017   3.602
   37        1.291   2.297   0.018   3.606
   38        1.288   2.305   0.018   3.611
   39        1.289   2.302   0.018   3.608
   40        1.289   2.301   0.017   3.608
   41        1.289   2.305   0.018   3.613
   42        1.319   2.164   0.028   3.512
   43        1.288   2.307   0.018   3.613
   44        1.291   2.298   0.018   3.606
   45        1.288   2.303   0.017   3.609
   46        1.289   2.301   0.017   3.607
   47        1.289   2.306   0.018   3.613
   48        1.289   2.301   0.017   3.607
   49        1.289   2.305   0.018   3.612
   50        1.291   2.298   0.018   3.607
   51        1.288   2.303   0.017   3.609
   52        1.319   2.165   0.028   3.512
   53        1.288   2.307   0.018   3.613
   54        1.289   2.301   0.017   3.607
   55        1.289   2.305   0.018   3.612
   56        1.288   2.306   0.018   3.612
   57        1.289   2.302   0.018   3.608
   58        1.289   2.295   0.017   3.602
   59        1.291   2.297   0.018   3.607
   60        1.289   2.296   0.017   3.602
   61        1.291   2.297   0.018   3.607
   62        1.290   2.318   0.020   3.628
   63        1.306   2.266   0.019   3.592
--------------------------------------------------
tot         54.501  82.402 297.898 434.801
 

 total amount of memory used by VASP MPI-rank0    77691. kBytes
=======================================================================

   base      :      30000. kBytes
   nonlr-proj:       3438. kBytes
   fftplans  :       6877. kBytes
   grid      :      11280. kBytes
   one-center:         46. kBytes
   HF        :        129. kBytes
   wavefun   :       2812. kBytes
   fock_wrk  :      23109. kBytes
 
  
  
 General timing and accounting informations for this job:
 ========================================================
  
                  Total CPU time used (sec):    12083.727
                            User time (sec):    12005.199
                          System time (sec):       78.528
                         Elapsed time (sec):    12304.772
  
                   Maximum memory used (kb):      302528.
                   Average memory used (kb):           0.
  
                          Minor page faults:       923492
                          Major page faults:           21
                 Voluntary context switches:        84168
