 vasp.6.1.1 19Jun20 (build Oct 26 2020 17:25:13) gamma-only                     
  
 executed on             LinuxIFC date 2021.02.18  09:57:31
 running on   48 total cores
 distrk:  each k-point on   48 cores,    1 groups
 distr:  one band on NCORE=  12 cores,    4 groups


--------------------------------------------------------------------------------------------------------


 INCAR:
 POTCAR:    PAW_PBE Cd 06Sep2000                  
 POTCAR:    PAW_PBE Te 08Apr2002                  
 POTCAR:    PAW_PBE Cd 06Sep2000                  
   VRHFIN =Cd : s2 d10                                                                              
   LEXCH  = PE                                                                                      
   EATOM  =  1293.1815 eV,   95.0462 Ry                                                             
                                                                                                    
   TITEL  = PAW_PBE Cd 06Sep2000                                                                    
   LULTRA =        F    use ultrasoft PP ?                                                          
   IUNSCR =        1    unscreen: 0-lin 1-nonlin 2-no                                               
   RPACOR =    2.000    partial core radius                                                         
   POMASS =  112.411; ZVAL   =   12.000    mass and valenz                                          
   RCORE  =    2.300    outmost cutoff radius                                                       
   RWIGS  =    2.980; RWIGS  =    1.577    wigner-seitz radius (au A)                               
   ENMAX  =  274.336; ENMIN  =  205.752 eV                                                          
   RCLOC  =    2.054    cutoff for local pot                                                        
   LCOR   =        T    correct aug charges                                                         
   LPAW   =        T    paw PP                                                                      
   EAUG   =  456.106                                                                                
   DEXC   =    0.000                                                                                
   RMAX   =    2.358    core radius for proj-oper                                                   
   RAUG   =    1.300    factor for augmentation sphere                                              
   RDEP   =    2.450    radius for radial grids                                                     
   RDEPT  =    1.955    core radius for aug-charge                                                  
                                                                                                    
   Atomic configuration                                                                             
   12 entries                                                                                       
     n  l   j            E        occ.                                                              
     1  0  0.50    -26519.7817   2.0000                                                             
     2  0  0.50     -3936.9612   2.0000                                                             
     2  1  1.50     -3532.2230   6.0000                                                             
     3  0  0.50      -733.7908   2.0000                                                             
     3  1  1.50      -601.0792   6.0000                                                             
     3  2  2.50      -393.5307  10.0000                                                             
     4  0  0.50      -105.8977   2.0000                                                             
     4  1  1.50       -66.9488   6.0000                                                             
     4  2  2.50       -11.7331  10.0000                                                             
     5  0  0.50        -5.6592   2.0000                                                             
     5  1  0.50        -1.3606   0.0000                                                             
     4  3  2.50        -1.3606   0.0000                                                             
   Description                                                                                      
     l       E           TYP  RCUT    TYP  RCUT                                                     
     2    -11.7331479     23  2.300                                                                 
     2    -13.0937305     23  2.300                                                                 
     0     -5.6591502     23  2.300                                                                 
     0     -1.5561433     23  2.300                                                                 
     1     -2.7211652     23  2.300                                                                 
     1      8.3548275     23  2.300                                                                 
  local pseudopotential read in
  partial core-charges read in
  partial kinetic energy density read in
  atomic valenz-charges read in
  non local Contribution for L=           2  read in
    real space projection operators read in
  non local Contribution for L=           2  read in
    real space projection operators read in
  non local Contribution for L=           0  read in
    real space projection operators read in
  non local Contribution for L=           0  read in
    real space projection operators read in
  non local Contribution for L=           1  read in
    real space projection operators read in
  non local Contribution for L=           1  read in
    real space projection operators read in
    PAW grid and wavefunctions read in
 
   number of l-projection  operators is LMAX  =           6
   number of lm-projection operators is LMMAX =          18
 
 POTCAR:    PAW_PBE Te 08Apr2002                  
   VRHFIN =Te: s2p4                                                                                 
   LEXCH  = PE                                                                                      
   EATOM  =   223.2721 eV,   16.4100 Ry                                                             
                                                                                                    
   TITEL  = PAW_PBE Te 08Apr2002                                                                    
   LULTRA =        F    use ultrasoft PP ?                                                          
   IUNSCR =        1    unscreen: 0-lin 1-nonlin 2-no                                               
   RPACOR =    2.200    partial core radius                                                         
   POMASS =  127.600; ZVAL   =    6.000    mass and valenz                                          
   RCORE  =    2.300    outmost cutoff radius                                                       
   RWIGS  =    2.900; RWIGS  =    1.535    wigner-seitz radius (au A)                               
   ENMAX  =  174.982; ENMIN  =  131.236 eV                                                          
   ICORE  =        3    local potential                                                             
   LCOR   =        T    correct aug charges                                                         
   LPAW   =        T    paw PP                                                                      
   EAUG   =  368.792                                                                                
   DEXC   =    0.000                                                                                
   RMAX   =    2.345    core radius for proj-oper                                                   
   RAUG   =    1.300    factor for augmentation sphere                                              
   RDEP   =    2.397    radius for radial grids                                                     
   RDEPT  =    2.174    core radius for aug-charge                                                  
                                                                                                    
   Atomic configuration                                                                             
   13 entries                                                                                       
     n  l   j            E        occ.                                                              
     1  0  0.50    -31621.2075   2.0000                                                             
     2  0  0.50     -4848.7941   2.0000                                                             
     2  1  1.50     -4352.1960   6.0000                                                             
     3  0  0.50      -964.9612   2.0000                                                             
     3  1  1.50      -803.6179   6.0000                                                             
     3  2  2.50      -559.8710  10.0000                                                             
     4  0  0.50      -164.3522   2.0000                                                             
     4  1  1.50      -114.3756   6.0000                                                             
     4  2  2.50       -41.6483  10.0000                                                             
     5  0  0.50       -15.1072   2.0000                                                             
     5  1  0.50        -5.9526   4.0000                                                             
     5  2  1.50        -5.4423   0.0000                                                             
     4  3  2.50        -5.4423   0.0000                                                             
   Description                                                                                      
     l       E           TYP  RCUT    TYP  RCUT                                                     
     0    -15.1072389     23  2.300                                                                 
     0    -16.4678215     23  2.300                                                                 
     1     -5.9526306     23  2.300                                                                 
     1     -2.4873968     23  2.300                                                                 
     2     -5.4423304     23  2.300                                                                 
     3     -1.3605826     23  2.300                                                                 
  local pseudopotential read in
  partial core-charges read in
  partial kinetic energy density read in
  atomic valenz-charges read in
  non local Contribution for L=           0  read in
    real space projection operators read in
  non local Contribution for L=           0  read in
    real space projection operators read in
  non local Contribution for L=           1  read in
    real space projection operators read in
  non local Contribution for L=           1  read in
    real space projection operators read in
  non local Contribution for L=           2  read in
    real space projection operators read in
    PAW grid and wavefunctions read in
 
   number of l-projection  operators is LMAX  =           5
   number of lm-projection operators is LMMAX =          13
 
 Optimization of the real space projectors (new method)

 maximal supplied QI-value         = 16.25
 optimisation between [QCUT,QGAM] = [ 10.73, 21.61] = [ 32.22,130.83] Ry 
 Optimized for a Real-space Cutoff    1.34 Angstroem

   l    n(q)    QCUT    max X(q) W(low)/X(q) W(high)/X(q)  e(spline) 
   2      8    10.726    73.106    0.62E-03    0.58E-03    0.13E-06
   2      8    10.726    71.731    0.63E-03    0.59E-03    0.13E-06
   0      9    10.726   146.509    0.37E-03    0.31E-03    0.93E-07
   0      9    10.726    95.017    0.35E-03    0.30E-03    0.90E-07
   1      8    10.726    36.165    0.40E-03    0.62E-04    0.20E-06
   1      8    10.726    31.530    0.37E-03    0.46E-04    0.19E-06
 Optimization of the real space projectors (new method)

 maximal supplied QI-value         = 16.25
 optimisation between [QCUT,QGAM] = [ 10.73, 21.61] = [ 32.22,130.83] Ry 
 Optimized for a Real-space Cutoff    1.26 Angstroem

   l    n(q)    QCUT    max X(q) W(low)/X(q) W(high)/X(q)  e(spline) 
   0      8    10.726   224.858    0.42E-03    0.29E-03    0.13E-06
   0      8    10.726   205.313    0.42E-03    0.29E-03    0.14E-06
   1      8    10.726   119.695    0.28E-03    0.65E-03    0.18E-06
   1      8    10.726    84.282    0.28E-03    0.64E-03    0.18E-06
   2      7    10.726     5.599    0.26E-03    0.18E-03    0.37E-07
  PAW_PBE Cd 06Sep2000                  :
 energy of atom  1       EATOM=-1293.1815
 kinetic energy error for atom=    0.0084 (will be added to EATOM!!)
  PAW_PBE Te 08Apr2002                  :
 energy of atom  2       EATOM= -223.2721
 kinetic energy error for atom=    0.0008 (will be added to EATOM!!)
 
 
 POSCAR: -60.0%_BDM_Distortion_vac_1_Cd[0. 0. 0.]
  positions in direct lattice
  velocities in cartesian coordinates
 exchange correlation table for  LEXCH =        8
   RHO(1)=    0.500       N(1)  =     2000
   RHO(2)=  100.500       N(2)  =     4000
 


--------------------------------------------------------------------------------------------------------


 ion  position               nearest neighbor table
   1  0.001  0.009  0.497-  53 2.81  32 2.81  62 2.86  43 2.87
   2  0.002  0.509  0.997-  35 2.82  54 2.82  40 2.84  61 2.84
   3  0.000  0.490  0.496-  34 2.84  55 2.84  60 2.85  41 2.85
   4  0.502  0.009  0.997-  48 2.81  37 2.81  46 2.86  59 2.87
   5  0.499  0.998  0.498-  58 2.83  47 2.83  36 2.84  49 2.85
   6  0.502  0.490  0.997-  39 2.84  50 2.85  57 2.85  44 2.86
   7  0.502  0.500  0.497-  56 2.83  45 2.83  38 2.83  51 2.84
   8  0.010  0.253  0.233-  40 2.79  60 2.86  32 2.86  52 2.87
   9  0.994  0.253  0.758-  61 2.80  41 2.85  53 2.86  33 2.87
  10  0.011  0.748  0.241-  42 2.76  54 2.85  34 2.85  62 2.91
  11  0.991  0.748  0.752-  63 2.76  35 2.85  55 2.85  43 2.91
  12  0.499  0.246  0.243-  48 2.81  44 2.84  56 2.84  36 2.87
  13  0.505  0.247  0.751-  37 2.82  57 2.84  45 2.84  49 2.87
  14  0.500  0.747  0.245-  50 2.81  38 2.84  58 2.84  46 2.85
  15  0.501  0.748  0.748-  39 2.81  51 2.84  47 2.84  59 2.85
  16  0.247  0.986  0.244-  42 2.76  58 2.84  32 2.88  48 2.89
  17  0.275  0.967  0.723-  59 2.74  43 2.74  49 2.77
  18  0.260  0.506  0.255-  40 2.81  50 2.81  34 2.81  56 2.82
  19  0.251  0.495  0.748-  35 2.82  51 2.84  57 2.84  41 2.85
  20  0.725  0.968  0.273-  46 2.75  62 2.75  36 2.77
  21  0.756  0.985  0.752-  63 2.77  47 2.84  37 2.88  53 2.88
  22  0.752  0.495  0.246-  54 2.82  38 2.84  44 2.84  60 2.84
  23  0.743  0.507  0.740-  61 2.81  39 2.81  55 2.81  45 2.82
  24  0.240  0.253  0.005-  40 2.80  57 2.85  48 2.86  33 2.87
  25  0.247  0.247  0.494-  32 2.81  41 2.83  56 2.84  49 2.87
  26  0.244  0.750  0.007-  42 2.77  35 2.85  50 2.86  59 2.91
  27  0.249  0.746  0.498-  34 2.81  51 2.84  58 2.84  43 2.85
  28  0.766  0.254  0.987-  61 2.80  44 2.85  37 2.86  52 2.87
  29  0.756  0.247  0.500-  53 2.81  60 2.84  45 2.84  36 2.87
  30  0.758  0.749  0.988-  63 2.76  54 2.85  39 2.85  46 2.91
  31  0.752  0.748  0.496-  55 2.81  38 2.84  47 2.84  62 2.85
  32  0.126  0.124  0.365-  25 2.81   1 2.81   8 2.86  16 2.88
  33  0.076  0.132  0.922-  52 2.75  24 2.87   9 2.87
  34  0.125  0.621  0.376-  27 2.81  18 2.81   3 2.84  10 2.85
  35  0.129  0.627  0.869-   2 2.82  19 2.82  11 2.85  26 2.85
  36  0.625  0.125  0.374-  20 2.77   5 2.84  12 2.87  29 2.87
  37  0.634  0.124  0.872-   4 2.81  13 2.82  28 2.86  21 2.88
  38  0.627  0.623  0.370-   7 2.83  31 2.84  14 2.84  22 2.84
  39  0.622  0.623  0.874-  15 2.81  23 2.81   6 2.84  30 2.85
  40  0.131  0.392  0.126-   8 2.79  24 2.80  18 2.81   2 2.84
  41  0.125  0.367  0.626-  25 2.83  19 2.85   9 2.85   3 2.85
  42  0.117  0.880  0.114-  10 2.76  16 2.76  26 2.77
  43  0.120  0.871  0.620-  17 2.74  27 2.85   1 2.87  11 2.91
  44  0.633  0.365  0.120-  12 2.84  22 2.84  28 2.85   6 2.86
  45  0.625  0.372  0.620-  23 2.82   7 2.83  29 2.84  13 2.84
  46  0.624  0.872  0.116-  20 2.75  14 2.85   4 2.86  30 2.91
  47  0.625  0.872  0.621-   5 2.83  15 2.84  21 2.84  31 2.84
  48  0.370  0.123  0.123-   4 2.81  12 2.81  24 2.86  16 2.89
  49  0.375  0.125  0.624-  17 2.77   5 2.85  13 2.87  25 2.87
  50  0.380  0.622  0.120-  14 2.81  18 2.81   6 2.85  26 2.86
  51  0.375  0.622  0.624-   7 2.84  27 2.84  15 2.84  19 2.84
  52  0.928  0.131  0.070-  33 2.75  28 2.87   8 2.87
  53  0.876  0.123  0.629-   1 2.81  29 2.81   9 2.86  21 2.88
  54  0.874  0.626  0.125-   2 2.82  22 2.82  10 2.85  30 2.85
  55  0.877  0.622  0.616-  31 2.81  23 2.81   3 2.84  11 2.85
  56  0.379  0.371  0.374-  18 2.82   7 2.83  25 2.84  12 2.84
  57  0.372  0.366  0.874-  13 2.84  19 2.84  24 2.85   6 2.85
  58  0.376  0.871  0.374-   5 2.83  16 2.84  27 2.84  14 2.84
  59  0.379  0.872  0.878-  17 2.74  15 2.85   4 2.87  26 2.91
  60  0.878  0.365  0.366-  29 2.84  22 2.84   3 2.85   8 2.86
  61  0.874  0.393  0.866-  28 2.80   9 2.80  23 2.81   2 2.84
  62  0.882  0.872  0.374-  20 2.75  31 2.85   1 2.86  10 2.91
  63  0.885  0.878  0.880-  11 2.76  30 2.76  21 2.77
 

IMPORTANT INFORMATION: All symmetrisations will be switched off!
NOSYMM: (Re-)initialisation of all symmetry stuff for point group C_1.


----------------------------------------------------------------------------------------

                                     Primitive cell                                     

  volume of cell :    2241.2856

  direct lattice vectors                    reciprocal lattice vectors
    13.086768000  0.000000000  0.000000000     0.076413061  0.000000000  0.000000000
     0.000000000 13.086768000  0.000000000     0.000000000  0.076413061  0.000000000
     0.000000000  0.000000000 13.086768000     0.000000000  0.000000000  0.076413061

  length of vectors
    13.086768000 13.086768000 13.086768000     0.076413061  0.076413061  0.076413061

  position of ions in fractional coordinates (direct lattice)
     0.000963041  0.008705591  0.496767947
     0.002183178  0.509095400  0.996870056
     0.000415788  0.490049580  0.496025287
     0.501807145  0.009346525  0.996815861
     0.499075975  0.998206894  0.497831174
     0.502456597  0.489576155  0.997270444
     0.501599979  0.500183032  0.496586549
     0.010110596  0.252955006  0.232985290
     0.994090946  0.253443432  0.758172506
     0.010855957  0.748249863  0.240754716
     0.991494586  0.747798272  0.752355667
     0.498892365  0.246431466  0.242744102
     0.505333296  0.246897804  0.750861735
     0.500482977  0.747476886  0.244953688
     0.500961617  0.747747187  0.747905681
     0.246610744  0.985532272  0.243635273
     0.274670074  0.967340951  0.723098945
     0.259833218  0.505713227  0.254776294
     0.251004905  0.495277865  0.748467138
     0.725210760  0.967524401  0.272658695
     0.756149062  0.985141432  0.751918021
     0.752030495  0.495194029  0.246175436
     0.743340057  0.507104548  0.739614338
     0.239606177  0.252568083  0.005012319
     0.246881164  0.246851822  0.494100672
     0.244421728  0.750184635  0.006509492
     0.249362349  0.745931077  0.498341013
     0.766048699  0.253718024  0.987475735
     0.755658971  0.246791323  0.500005297
     0.757797421  0.748892852  0.988152481
     0.751804045  0.748058105  0.495555475
     0.126389106  0.123888491  0.365363133
     0.076179222  0.131933847  0.921640552
     0.124809221  0.621286477  0.375823917
     0.129419905  0.626633628  0.868916013
     0.625094125  0.124517874  0.373718841
     0.634075228  0.123824281  0.871669476
     0.627046418  0.622845946  0.369775847
     0.621903805  0.622886999  0.874013101
     0.131474877  0.392022252  0.125555502
     0.124795038  0.367212823  0.626212362
     0.117136418  0.879932718  0.114397632
     0.119542977  0.871418886  0.619575682
     0.632767400  0.364666451  0.119792568
     0.624992347  0.372311690  0.619830079
     0.623884457  0.871985270  0.115754592
     0.625010604  0.872417049  0.620655723
     0.369816547  0.122935152  0.122980850
     0.375148308  0.125147248  0.623511382
     0.380108307  0.621658518  0.119583385
     0.375408363  0.621997563  0.623766796
     0.927758557  0.130908896  0.070102463
     0.875782793  0.123367972  0.628726298
     0.873827682  0.625507997  0.124840852
     0.876816395  0.622146640  0.616363478
     0.378772496  0.371090342  0.374208022
     0.372035251  0.365700111  0.873899390
     0.376427931  0.870723398  0.374059558
     0.378613019  0.872437690  0.878375119
     0.878317043  0.364986270  0.365985261
     0.873691376  0.392954927  0.866380937
     0.882492510  0.872108083  0.373582248
     0.885359364  0.877863771  0.880225611

  ion indices of the primitive-cell ions
   primitive index   ion index
                 1           1
                 2           2
                 3           3
                 4           4
                 5           5
                 6           6
                 7           7
                 8           8
                 9           9
                10          10
                11          11
                12          12
                13          13
                14          14
                15          15
                16          16
                17          17
                18          18
                19          19
                20          20
                21          21
                22          22
                23          23
                24          24
                25          25
                26          26
                27          27
                28          28
                29          29
                30          30
                31          31
                32          32
                33          33
                34          34
                35          35
                36          36
                37          37
                38          38
                39          39
                40          40
                41          41
                42          42
                43          43
                44          44
                45          45
                46          46
                47          47
                48          48
                49          49
                50          50
                51          51
                52          52
                53          53
                54          54
                55          55
                56          56
                57          57
                58          58
                59          59
                60          60
                61          61
                62          62
                63          63

----------------------------------------------------------------------------------------

 
 
 KPOINTS: Kpoints from DefectsWithTheBoys.vasp_gam

Automatic generation of k-mesh.
Space group operators:
 irot       det(A)        alpha          n_x          n_y          n_z        tau_x        tau_y        tau_z
    1     1.000000     0.000000     1.000000     0.000000     0.000000     0.000000     0.000000     0.000000
 
 Subroutine IBZKPT returns following result:
 ===========================================
 
 Found      1 irreducible k-points:
 
 Following reciprocal coordinates:
            Coordinates               Weight
  0.000000  0.000000  0.000000      1.000000
 
 Following cartesian coordinates:
            Coordinates               Weight
  0.000000  0.000000  0.000000      1.000000
 
 
 Subroutine IBZKPT_HF returns following result:
 ==============================================
 
 Found      1 k-points in 1st BZ
 the following      1 k-points will be used (e.g. in the exchange kernel)
 Following reciprocal coordinates:   # in IRBZ
  0.000000  0.000000  0.000000    1.00000000   1 t-inv F


--------------------------------------------------------------------------------------------------------




 Dimension of arrays:
   k-points           NKPTS =      1   k-points in BZ     NKDIM =      1   number of bands    NBANDS=    340
   number of dos      NEDOS =   2000   number of ions     NIONS =     63
   non local maximal  LDIM  =      6   non local SUM 2l+1 LMDIM =     18
   total plane-waves  NPLWV = 884736
   max r-space proj   IRMAX =   4034   max aug-charges    IRDMAX=  23156
   dimension x,y,z NGX =    96 NGY =   96 NGZ =   96
   dimension x,y,z NGXF=   192 NGYF=  192 NGZF=  192
   support grid    NGXF=   192 NGYF=  192 NGZF=  192
   ions per type =              31  32
   NGX,Y,Z   is equivalent  to a cutoff of  12.20, 12.20, 12.20 a.u.
   NGXF,Y,Z  is equivalent  to a cutoff of  24.39, 24.39, 24.39 a.u.

 SYSTEM =  unknown system                          
 POSCAR =  -60.0%_BDM_Distortion_vac_1_Cd[0. 0. 0.]

 Startparameter for this run:
   NWRITE =      2    write-flag & timer
   PREC   = accura    normal or accurate (medium, high low for compatibility)
   ISTART =      0    job   : 0-new  1-cont  2-samecut
   ICHARG =      1    charge: 1-file 2-atom 10-const
   ISPIN  =      1    spin polarized calculation?
   LNONCOLLINEAR =      F non collinear calculations
   LSORBIT =      F    spin-orbit coupling
   INIWAV =      1    electr: 0-lowe 1-rand  2-diag
   LASPH  =      T    aspherical Exc in radial PAW
   METAGGA=      F    non-selfconsistent MetaGGA calc.

 Electronic Relaxation 1
   ENCUT  =  450.0 eV  33.07 Ry    5.75 a.u.  22.64 22.64 22.64*2*pi/ulx,y,z
   ENINI  =  450.0     initial cutoff
   ENAUG  =  456.1 eV  augmentation charge cutoff
   NELM   =    100;   NELMIN=  2; NELMDL=  0     # of ELM steps 
   EDIFF  = 0.5E-05   stopping-criterion for ELM
   LREAL  =      T    real-space projection
   NLSPLINE    = F    spline interpolate recip. space projectors
   LCOMPAT=      F    compatible to vasp.4.4
   GGA_COMPAT  = T    GGA compatible to vasp.4.4-vasp.4.6
   LMAXPAW     = -100 max onsite density
   LMAXMIX     =    2 max onsite mixed and CHGCAR
   VOSKOWN=      0    Vosko Wilk Nusair interpolation
   ROPT   =   -0.00100  -0.00100
 Ionic relaxation
   EDIFFG = -.1E-01   stopping-criterion for IOM
   NSW    =    300    number of steps for IOM
   NBLOCK =      1;   KBLOCK =    300    inner block; outer block 
   IBRION =      2    ionic relax: 0-MD 1-quasi-New 2-CG
   NFREE  =      1    steps in history (QN), initial steepest desc. (CG)
   ISIF   =      2    stress and relaxation
   IWAVPR =     11    prediction:  0-non 1-charg 2-wave 3-comb
   ISYM   =      0    0-nonsym 1-usesym 2-fastsym
   LCORR  =      T    Harris-Foulkes like correction to forces

   POTIM  = 0.2000    time-step for ionic-motion
   TEIN   =    0.0    initial temperature
   TEBEG  =    0.0;   TEEND  =   0.0 temperature during run
   SMASS  =  -3.00    Nose mass-parameter (am)
   estimated Nose-frequenzy (Omega)   =  0.10E-29 period in steps = 0.31E+47 mass=  -0.391E-26a.u.
   SCALEE = 1.0000    scale energy and forces
   NPACO  =    256;   APACO  = 16.0  distance and # of slots for P.C.
   PSTRESS=    0.0 pullay stress

  Mass of Ions in am
   POMASS = 112.41127.60
  Ionic Valenz
   ZVAL   =  12.00  6.00
  Atomic Wigner-Seitz radii
   RWIGS  =  -1.00 -1.00
  virtual crystal weights 
   VCA    =   1.00  1.00
   NELECT =     564.0000    total number of electrons
   NUPDOWN=       0.0000    fix difference up-down

 DOS related values:
   EMIN   =  10.00;   EMAX   =-10.00  energy-range for DOS
   EFERMI =   0.00
   ISMEAR =     0;   SIGMA  =   0.05  broadening in eV -4-tet -1-fermi 0-gaus

 Electronic relaxation 2 (details)
   IALGO  =     38    algorithm
   LDIAG  =      T    sub-space diagonalisation (order eigenvalues)
   LSUBROT=      F    optimize rotation matrix (better conditioning)
   TURBO    =      0    0=normal 1=particle mesh
   IRESTART =      0    0=no restart 2=restart with 2 vectors
   NREBOOT  =      0    no. of reboots
   NMIN     =      0    reboot dimension
   EREF     =   0.00    reference energy to select bands
   IMIX   =      1    mixing-type and parameters
     AMIX     =   0.40;   BMIX     =  1.00
     AMIX_MAG =   1.60;   BMIX_MAG =  1.00
     AMIN     =   0.10
     WC   =   100.;   INIMIX=   1;  MIXPRE=   1;  MAXMIX= -45

 Intra band minimization:
   WEIMIN = 0.0010     energy-eigenvalue tresh-hold
   EBREAK =  0.37E-08  absolut break condition
   DEPER  =   0.30     relativ break condition  

   TIME   =   0.40     timestep for ELM

  volume/ion in A,a.u.               =      35.58       240.08
  Fermi-wavevector in a.u.,A,eV,Ry     =   1.033559  1.953144 14.534357  1.068245
  Thomas-Fermi vector in A             =   2.167812
 
 Write flags
   LWAVE        =      F    write WAVECAR
   LDOWNSAMPLE  =      F    k-point downsampling of WAVECAR
   LCHARG       =      T    write CHGCAR
   LVTOT        =      F    write LOCPOT, total local potential
   LVHAR        =      F    write LOCPOT, Hartree potential only
   LELF         =      F    write electronic localiz. function (ELF)
   LORBIT       =     11    0 simple, 1 ext, 2 COOP (PROOUT), +10 PAW based schemes


 Dipole corrections
   LMONO  =      F    monopole corrections only (constant potential shift)
   LDIPOL =      F    correct potential (dipole corrections)
   IDIPOL =      0    1-x, 2-y, 3-z, 4-all directions 
   EPSILON=  1.0000000 bulk dielectric constant

 Exchange correlation treatment:
   GGA     =    --    GGA type
   LEXCH   =     8    internal setting for exchange type
   VOSKOWN=      0    Vosko Wilk Nusair interpolation
   EXXOEP  =     0    0=HF, 1=EXX-LHF (local Hartree Fock) 2=EXX OEP
   LHFCALC =     T    Hartree Fock is set to
   LSYMGRAD=     F    symmetrize gradient (conserves proper symmetry)
   PRECFOCK=fast      Normal, Fast or Accurate (Low or Medium for compatibility)
   LRHFCALC=     F    long range Hartree Fock
   LRSCOR  =     F    long range correlation only (use DFT for short range part)
   LTHOMAS =     F    Thomas Fermi screening in HF
   LMODELHF=     F    short range full HF, long range fraction AEXX
   LFOCKACE=     T    use Adeptively-Compressed-Exchange operator
   ENCUT4O =  -1.0   cutoff for four orbital integrals eV
   LMAXFOCK=     4    L truncation for augmentation on plane wave grid
   LMAXFOCKAE=  -1    L truncation for all-electron charge restoration on plane wave grid
   NMAXFOCKAE=   1    number of basis functions for all-electron charge restoration
   LFOCKAEDFT=     F  apply the AE augmentation even for DFT
   NKREDX  =     1    reduce k-point grid by
   NKREDY  =     1    reduce k-point grid by
   NKREDZ  =     1    reduce k-point grid by
   SHIFTRED=     F    shift reduced grid of Gamma
   HFKIDENT=     F    idential grid for each k-point
   ODDONLY =     F    use only odd q-grid points
   EVENONLY=     F    use only even q-grid points
   HFALPHA =   -1.0000 decay constant for conv. correction
   MCALPHA =    0.0000 extent of test-charge in conv. correction in multipole expansion
   AEXX    =    0.3450 exact exchange contribution
   HFSCREEN=    0.2000 screening length (either q_TF or 0.3 A-1)
   HFSCREENC=   0.2000 screening length for correlation (either q_TF or 0.3 A-1)
   HFRCUT  =    0.0000 spherical cutoff for potential kernel
   ALDAX   =    0.6550 LDA exchange part
   AGGAX   =    0.6550 GGA exchange part
   ALDAC   =    1.0000 LDA correlation
   AGGAC   =    1.0000 GGA correlation
   ENCUTFOCK=  -1.0 apply spherical cutoff to Coloumb kernel
   NBANDSGWLOW=     1    first orbital included in HF term
   NBLOCK_FOCK=    64    blocking factor in FOCK_ACC
 Linear response parameters
   LEPSILON=     F    determine dielectric tensor
   LRPA    =     F    only Hartree local field effects (RPA)
   LNABLA  =     F    use nabla operator in PAW spheres
   LVEL    =     F    velocity operator in full k-point grid
   LINTERFAST=   F  fast interpolation
   KINTER  =     0    interpolate to denser k-point grid
   CSHIFT  =0.1000    complex shift for real part using Kramers Kronig
   OMEGAMAX=  -1.0    maximum frequency
   DEG_THRESHOLD= 0.2000000E-02 threshold for treating states as degnerate
   RTIME   =   -0.100 relaxation time in fs
  (WPLASMAI=    0.000 imaginary part of plasma frequency in eV, 0.658/RTIME)
   DFIELD  = 0.0000000 0.0000000 0.0000000 field for delta impulse in time
 
 Orbital magnetization related:
   ORBITALMAG=     F  switch on orbital magnetization
   LCHIMAG   =     F  perturbation theory with respect to B field
   DQ        =  0.001000  dq finite difference perturbation B field
   LLRAUG    =     F  two centre corrections for induced B field



--------------------------------------------------------------------------------------------------------


 conjugate gradient relaxation of ions
 charge density and potential will be updated during run
 non-spin polarized calculation
 Variant of blocked Davidson
 Davidson routine will perform the subspace rotation
 perform sub-space diagonalisation
    after iterative eigenvector-optimisation
 Kerker-like  mixing scheme
 using additional bands           58
 real space projection scheme for non local part
 use partial core corrections
 calculate Harris-corrections to forces 
   (improved forces if not selfconsistent)
 use gradient corrections 
 use of overlap-Matrix (Vanderbilt PP)
 Gauss-broadening in eV      SIGMA  =   0.05


--------------------------------------------------------------------------------------------------------


  energy-cutoff  :      450.00
  volume of cell :     2241.29
      direct lattice vectors                 reciprocal lattice vectors
    13.086768000  0.000000000  0.000000000     0.076413061  0.000000000  0.000000000
     0.000000000 13.086768000  0.000000000     0.000000000  0.076413061  0.000000000
     0.000000000  0.000000000 13.086768000     0.000000000  0.000000000  0.076413061

  length of vectors
    13.086768000 13.086768000 13.086768000     0.076413061  0.076413061  0.076413061


 
 k-points in units of 2pi/SCALE and weight: Kpoints from DefectsWithTheBoys.vasp_gam
   0.00000000  0.00000000  0.00000000       1.000
 
 k-points in reciprocal lattice and weights: Kpoints from DefectsWithTheBoys.vasp_gam
   0.00000000  0.00000000  0.00000000       1.000
 
 position of ions in fractional coordinates (direct lattice) 
   0.00096304  0.00870559  0.49676795
   0.00218318  0.50909540  0.99687006
   0.00041579  0.49004958  0.49602529
   0.50180714  0.00934653  0.99681586
   0.49907597  0.99820689  0.49783117
   0.50245660  0.48957616  0.99727044
   0.50159998  0.50018303  0.49658655
   0.01011060  0.25295501  0.23298529
   0.99409095  0.25344343  0.75817251
   0.01085596  0.74824986  0.24075472
   0.99149459  0.74779827  0.75235567
   0.49889237  0.24643147  0.24274410
   0.50533330  0.24689780  0.75086174
   0.50048298  0.74747689  0.24495369
   0.50096162  0.74774719  0.74790568
   0.24661074  0.98553227  0.24363527
   0.27467007  0.96734095  0.72309894
   0.25983322  0.50571323  0.25477629
   0.25100490  0.49527787  0.74846714
   0.72521076  0.96752440  0.27265870
   0.75614906  0.98514143  0.75191802
   0.75203049  0.49519403  0.24617544
   0.74334006  0.50710455  0.73961434
   0.23960618  0.25256808  0.00501232
   0.24688116  0.24685182  0.49410067
   0.24442173  0.75018463  0.00650949
   0.24936235  0.74593108  0.49834101
   0.76604870  0.25371802  0.98747574
   0.75565897  0.24679132  0.50000530
   0.75779742  0.74889285  0.98815248
   0.75180404  0.74805810  0.49555547
   0.12638911  0.12388849  0.36536313
   0.07617922  0.13193385  0.92164055
   0.12480922  0.62128648  0.37582392
   0.12941990  0.62663363  0.86891601
   0.62509413  0.12451787  0.37371884
   0.63407523  0.12382428  0.87166948
   0.62704642  0.62284595  0.36977585
   0.62190381  0.62288700  0.87401310
   0.13147488  0.39202225  0.12555550
   0.12479504  0.36721282  0.62621236
   0.11713642  0.87993272  0.11439763
   0.11954298  0.87141889  0.61957568
   0.63276740  0.36466645  0.11979257
   0.62499235  0.37231169  0.61983008
   0.62388446  0.87198527  0.11575459
   0.62501060  0.87241705  0.62065572
   0.36981655  0.12293515  0.12298085
   0.37514831  0.12514725  0.62351138
   0.38010831  0.62165852  0.11958339
   0.37540836  0.62199756  0.62376680
   0.92775856  0.13090890  0.07010246
   0.87578279  0.12336797  0.62872630
   0.87382768  0.62550800  0.12484085
   0.87681639  0.62214664  0.61636348
   0.37877250  0.37109034  0.37420802
   0.37203525  0.36570011  0.87389939
   0.37642793  0.87072340  0.37405956
   0.37861302  0.87243769  0.87837512
   0.87831704  0.36498627  0.36598526
   0.87369138  0.39295493  0.86638094
   0.88249251  0.87210808  0.37358225
   0.88535936  0.87786377  0.88022561
 
 position of ions in cartesian coordinates  (Angst):
   0.01260309  0.11392805  6.50108687
   0.02857074  6.66241339 13.04580715
   0.00544133  6.41316516  6.49136786
   6.56703368  0.12231580 13.04509791
   6.53129150 13.06330203  6.51500108
   6.57553291  6.40696956 13.05104694
   6.56432255  6.54577929  6.49871296
   0.13231503  3.31036348  3.04902444
  13.00943758  3.31675540  9.92202768
   0.14206939  9.79217237  3.15070112
  12.97545962  9.78626250  9.84590406
   6.52888864  3.22499143  3.17673575
   6.61317960  3.23109429  9.82635333
   6.54970460  9.78205659  3.20565209
   6.55596845  9.78559396  9.78766814
   3.22733760 12.89743220  3.18839829
   3.59454354 12.65936661  9.46302813
   3.40037704  6.61815168  3.33419825
   3.28484296  6.48158652  9.79501579
   9.49066496 12.66176737  3.56822109
   9.89554735 12.89231737  9.84017670
   9.84164861  6.48048938  3.22164082
   9.72791887  6.63635957  9.67916125
   3.13567045  3.30529990  0.06559506
   3.23087652  3.23049252  6.46618087
   3.19869045  9.81749227  0.08518821
   3.26334721  9.76182695  6.52167322
  10.02510161  3.32034892 12.92286585
   9.88913364  3.22970079  6.54345332
   9.91711904  9.80058701 12.93172227
   9.83868511  9.78966286  6.48521953
   1.65402491  1.62129994  4.78142256
   0.99693980  1.72658765 12.06129609
   1.63334932  8.13063199  4.91832042
   1.69368827  8.20060891 11.37130228
   8.18046179  1.62953653  4.89077177
   8.29799540  1.62045963 11.40733621
   8.20601099  8.15104039  4.83917072
   8.13871082  8.15157764 11.43800668
   1.72058121  5.13030426  1.64311572
   1.63316371  4.80562902  8.19509590
   1.53293713 11.51547534  1.49709527
   1.56443120 11.40405679  8.10824320
   8.28088016  4.77230524  1.56769755
   8.17912985  4.87235671  8.11157245
   8.16463115 11.41146893  1.51485349
   8.17936877 11.41711952  8.12237746
   4.83970336  1.60882382  1.60942185
   4.90947887  1.63777300  8.15974881
   4.97438922  8.13550080  1.56496002
   4.91288216  8.13993780  8.16309135
  12.14136100  1.71317436  0.91741467
  11.46116623  1.61448803  8.22799520
  11.43558015  8.18587804  1.63376327
  11.47469274  8.14188874  8.06620584
   4.95690778  4.85637321  4.89717357
   4.86873902  4.78583251 11.43651857
   4.92622500 11.39495510  4.89523066
   4.95482074 11.41738965 11.49509141
  11.49433137  4.77649064  4.78956421
  11.43379634  5.14250996 11.33812632
  11.54897473 11.41307616  4.88898421
  11.58649260 11.48839951 11.51930835
 


--------------------------------------------------------------------------------------------------------


 use parallel FFT for orbitals z direction half grid
 k-point   1 :   0.0000 0.0000 0.0000  plane waves:   24251

 maximum and minimum number of plane-waves per node :      2027     2015

 maximum number of plane-waves:     24251
 maximum index in each direction: 
   IXMAX=   22   IYMAX=   22   IZMAX=   22
   IXMIN=  -22   IYMIN=  -22   IZMIN=    0


 real space projection operators:
  total allocation   :      27373.90 KBytes
  max/ min on nodes  :       2562.30       2098.08


 parallel 3D FFT for wavefunctions:
    minimum data exchange during FFTs selected (reduces bandwidth)
 parallel 3D FFT for charge:
    minimum data exchange during FFTs selected (reduces bandwidth)


 FFT grid for exact exchange (Hartree Fock) 
  NGX = 48; NGY = 48; NGZ = 48

 use parallel FFT for orbitals z direction half grid
 
 Radii for the augmentation spheres in the non-local exchange
 for species   1 augmentation radius   1.444 (default was   1.070)
       energy cutoff for augmentation   1800.0
 for species   2 augmentation radius   1.606 (default was   1.190)
       energy cutoff for augmentation   1800.0

 real space projection operators:
  total allocation   :       9119.92 KBytes
  max/ min on nodes  :        861.72        579.30

 Maximum index for augmentation-charges in exchange           91
  SETUP_FOCK is finished

 total amount of memory used by VASP MPI-rank0    54505. kBytes
=======================================================================

   base      :      30000. kBytes
   nonlr-proj:       3361. kBytes
   fftplans  :       6877. kBytes
   grid      :      11280. kBytes
   one-center:         46. kBytes
   HF        :        129. kBytes
   wavefun   :       2812. kBytes
 
     INWAV:  cpu time    0.0001: real time    0.0002
 initial charge density was supplied:
 charge density of overlapping atoms calculated
 number of electron     564.0000000 magnetization 
 keeping initial charge density in first step


--------------------------------------------------------------------------------------------------------


 Maximum index for non-local projection operator          300
 Maximum index for augmentation-charges          779 (set IRDMAX)


--------------------------------------------------------------------------------------------------------


 First call to EWALD:  gamma=   0.135
 Maximum number of real-space cells 3x 3x 3
 Maximum number of reciprocal cells 3x 3x 3

    FEWALD:  cpu time    0.0024: real time    0.0024


--------------------------------------- Iteration      1(   1)  ---------------------------------------


    POTLOK:  cpu time    0.1033: real time    0.1089
    SETDIJ:  cpu time    0.5751: real time    0.5792
     EDDAV:  cpu time    1.9664: real time    2.0654
       DOS:  cpu time    0.0010: real time    0.0010
    --------------------------------------------
      LOOP:  cpu time    2.6458: real time    2.7545

 eigenvalue-minimisations  :   736
 total energy-change (2. order) :-0.8821611E+05  (-0.2755868E+05)
 number of electron     564.0000000 magnetization 
 augmentation part      564.0000000 magnetization 

 Free energy of the ion-electron system (eV)
  ---------------------------------------------------
  alpha Z        PSCENC =      1482.04539224
  Ewald energy   TEWEN  =    -31772.88536821
  -Hartree energ DENC   =    -16450.81640487
  -exchange      EXHF   =         0.00000000
  -V(xc)+E(xc)   XCENC  =      -733.71581370
  PAW double counting   =     43745.08136476  -132352.96792733
  entropy T*S    EENTRO =        -0.05725362
  eigenvalues    EBANDS =       728.82853395
  atomic energy  EATOM  =     47138.37786884
  Solvation  Ediel_sol  =         0.00000000
  ---------------------------------------------------
  free energy    TOTEN  =    -88216.10960794 eV

  energy without entropy =   -88216.05235432  energy(sigma->0) =   -88216.08098113
  exchange ACFDT corr.  =         0.00000000  see jH, gK, PRB 81, 115126


--------------------------------------------------------------------------------------------------------




--------------------------------------- Iteration      1(   2)  ---------------------------------------


     EDDAV:  cpu time    1.5429: real time    1.5448
       DOS:  cpu time    0.0009: real time    0.0009
    --------------------------------------------
      LOOP:  cpu time    1.5438: real time    1.5457

 eigenvalue-minimisations  :   788
 total energy-change (2. order) :-0.4617613E+04  (-0.4490295E+04)
 number of electron     564.0000000 magnetization 
 augmentation part      564.0000000 magnetization 

 Free energy of the ion-electron system (eV)
  ---------------------------------------------------
  alpha Z        PSCENC =      1482.04539224
  Ewald energy   TEWEN  =    -31772.88536821
  -Hartree energ DENC   =    -16450.81640487
  -exchange      EXHF   =         0.00000000
  -V(xc)+E(xc)   XCENC  =      -733.71581370
  PAW double counting   =     43745.08136476  -132352.96792733
  entropy T*S    EENTRO =        -0.00000000
  eigenvalues    EBANDS =     -3888.84195579
  atomic energy  EATOM  =     47138.37786884
  Solvation  Ediel_sol  =         0.00000000
  ---------------------------------------------------
  free energy    TOTEN  =    -92833.72284406 eV

  energy without entropy =   -92833.72284406  energy(sigma->0) =   -92833.72284406
  exchange ACFDT corr.  =         0.00000000  see jH, gK, PRB 81, 115126


--------------------------------------------------------------------------------------------------------




--------------------------------------- Iteration      1(   3)  ---------------------------------------


     EDDAV:  cpu time    2.4146: real time    2.4893
       DOS:  cpu time    0.0038: real time    0.0038
    --------------------------------------------
      LOOP:  cpu time    2.4184: real time    2.4931

 eigenvalue-minimisations  :   784
 total energy-change (2. order) :-0.3777635E+03  (-0.3734627E+03)
 number of electron     564.0000000 magnetization 
 augmentation part      564.0000000 magnetization 

 Free energy of the ion-electron system (eV)
  ---------------------------------------------------
  alpha Z        PSCENC =      1482.04539224
  Ewald energy   TEWEN  =    -31772.88536821
  -Hartree energ DENC   =    -16450.81640487
  -exchange      EXHF   =         0.00000000
  -V(xc)+E(xc)   XCENC  =      -733.71581370
  PAW double counting   =     43745.08136476  -132352.96792733
  entropy T*S    EENTRO =        -0.00000000
  eigenvalues    EBANDS =     -4266.60550466
  atomic energy  EATOM  =     47138.37786884
  Solvation  Ediel_sol  =         0.00000000
  ---------------------------------------------------
  free energy    TOTEN  =    -93211.48639293 eV

  energy without entropy =   -93211.48639293  energy(sigma->0) =   -93211.48639293
  exchange ACFDT corr.  =         0.00000000  see jH, gK, PRB 81, 115126


--------------------------------------------------------------------------------------------------------




--------------------------------------- Iteration      1(   4)  ---------------------------------------


     EDDAV:  cpu time    2.3960: real time    2.4035
       DOS:  cpu time    0.0014: real time    0.0014
    --------------------------------------------
      LOOP:  cpu time    2.3974: real time    2.4049

 eigenvalue-minimisations  :   824
 total energy-change (2. order) :-0.1926897E+02  (-0.1920717E+02)
 number of electron     564.0000000 magnetization 
 augmentation part      564.0000000 magnetization 

 Free energy of the ion-electron system (eV)
  ---------------------------------------------------
  alpha Z        PSCENC =      1482.04539224
  Ewald energy   TEWEN  =    -31772.88536821
  -Hartree energ DENC   =    -16450.81640487
  -exchange      EXHF   =         0.00000000
  -V(xc)+E(xc)   XCENC  =      -733.71581370
  PAW double counting   =     43745.08136476  -132352.96792733
  entropy T*S    EENTRO =        -0.00000000
  eigenvalues    EBANDS =     -4285.87447460
  atomic energy  EATOM  =     47138.37786884
  Solvation  Ediel_sol  =         0.00000000
  ---------------------------------------------------
  free energy    TOTEN  =    -93230.75536287 eV

  energy without entropy =   -93230.75536287  energy(sigma->0) =   -93230.75536287
  exchange ACFDT corr.  =         0.00000000  see jH, gK, PRB 81, 115126


--------------------------------------------------------------------------------------------------------




--------------------------------------- Iteration      1(   5)  ---------------------------------------


    POTLOK:  cpu time    0.2459: real time    0.2468
    SETDIJ:  cpu time    0.9087: real time    0.9168
     EDDAV:  cpu time   18.7682: real time   19.1182
       DOS:  cpu time    0.0008: real time    0.0008
    CHARGE:  cpu time    0.0729: real time    0.0729
    MIXING:  cpu time    0.0013: real time    0.0013
    --------------------------------------------
      LOOP:  cpu time   19.9978: real time   20.3569

 eigenvalue-minimisations  :   680
 total energy-change (2. order) : 0.9302908E+05  (-0.7764357E+02)
 number of electron     564.0000004 magnetization 
 augmentation part      142.2883264 magnetization 

 Free energy of the ion-electron system (eV)
  ---------------------------------------------------
  alpha Z        PSCENC =      1482.04539224
  Ewald energy   TEWEN  =    -31772.88536821
  -Hartree energ DENC   =    -16450.81640487
  -exchange      EXHF   =      1584.85177754
  -V(xc)+E(xc)   XCENC  =      -599.23563928
  PAW double counting   =     43590.36926174   -41748.31759969
  entropy T*S    EENTRO =        -0.00000000
  eigenvalues    EBANDS =     -3426.06392984
  atomic energy  EATOM  =     47138.37786884
  Solvation  Ediel_sol  =         0.00000000
  ---------------------------------------------------
  free energy    TOTEN  =      -201.67464152 eV

  energy without entropy =     -201.67464152  energy(sigma->0) =     -201.67464152
  exchange ACFDT corr.  =         0.00000000  see jH, gK, PRB 81, 115126


--------------------------------------------------------------------------------------------------------




--------------------------------------- Iteration      1(   6)  ---------------------------------------


    POTLOK:  cpu time    0.2491: real time    0.2743
    SETDIJ:  cpu time    0.9286: real time    0.9290
     EDDAV:  cpu time   18.2560: real time   18.4966
       DOS:  cpu time    0.0033: real time    0.0033
    CHARGE:  cpu time    0.0716: real time    0.0728
    MIXING:  cpu time    0.0012: real time    0.0012
    --------------------------------------------
      LOOP:  cpu time   19.5098: real time   19.7773

 eigenvalue-minimisations  :   776
 total energy-change (2. order) :-0.5038721E+01  (-0.6171961E+01)
 number of electron     564.0000006 magnetization 
 augmentation part      142.3578787 magnetization 

 Free energy of the ion-electron system (eV)
  ---------------------------------------------------
  alpha Z        PSCENC =      1482.04539224
  Ewald energy   TEWEN  =    -31772.88536821
  -Hartree energ DENC   =    -16485.15130655
  -exchange      EXHF   =      1525.78889553
  -V(xc)+E(xc)   XCENC  =      -596.64385749
  PAW double counting   =     74268.47986583   -72403.23502667
  entropy T*S    EENTRO =        -0.00000000
  eigenvalues    EBANDS =     -3363.48982587
  atomic energy  EATOM  =     47138.37786884
  Solvation  Ediel_sol  =         0.00000000
  ---------------------------------------------------
  free energy    TOTEN  =      -206.71336236 eV

  energy without entropy =     -206.71336236  energy(sigma->0) =     -206.71336236
  exchange ACFDT corr.  =         0.00000000  see jH, gK, PRB 81, 115126


--------------------------------------------------------------------------------------------------------




--------------------------------------- Iteration      1(   7)  ---------------------------------------


    POTLOK:  cpu time    0.2487: real time    0.2533
    SETDIJ:  cpu time    0.9210: real time    0.9217
     EDDAV:  cpu time   18.0739: real time   18.3832
       DOS:  cpu time    0.0008: real time    0.0008
    CHARGE:  cpu time    0.0756: real time    0.0756
    MIXING:  cpu time    0.0015: real time    0.0015
    --------------------------------------------
      LOOP:  cpu time   19.3214: real time   19.6362

 eigenvalue-minimisations  :   780
 total energy-change (2. order) : 0.2607403E+00  (-0.9810242E+00)
 number of electron     564.0000007 magnetization 
 augmentation part      143.5320760 magnetization 

 Free energy of the ion-electron system (eV)
  ---------------------------------------------------
  alpha Z        PSCENC =      1482.04539224
  Ewald energy   TEWEN  =    -31772.88536821
  -Hartree energ DENC   =    -16409.41820368
  -exchange      EXHF   =      1506.64967407
  -V(xc)+E(xc)   XCENC  =      -596.48150956
  PAW double counting   =    100859.94144026   -98980.12136386
  entropy T*S    EENTRO =        -0.00000000
  eigenvalues    EBANDS =     -3434.56055216
  atomic energy  EATOM  =     47138.37786884
  Solvation  Ediel_sol  =         0.00000000
  ---------------------------------------------------
  free energy    TOTEN  =      -206.45262207 eV

  energy without entropy =     -206.45262207  energy(sigma->0) =     -206.45262207
  exchange ACFDT corr.  =         0.00000000  see jH, gK, PRB 81, 115126


--------------------------------------------------------------------------------------------------------




--------------------------------------- Iteration      1(   8)  ---------------------------------------


    POTLOK:  cpu time    0.2504: real time    0.2510
    SETDIJ:  cpu time    0.9179: real time    0.9264
     EDDAV:  cpu time   18.1130: real time   18.3719
       DOS:  cpu time    0.0008: real time    0.0008
    CHARGE:  cpu time    0.0729: real time    0.0729
    MIXING:  cpu time    0.0011: real time    0.0011
    --------------------------------------------
      LOOP:  cpu time   19.3563: real time   19.6244

 eigenvalue-minimisations  :   756
 total energy-change (2. order) :-0.1355588E+00  (-0.1673124E+00)
 number of electron     564.0000008 magnetization 
 augmentation part      144.0233525 magnetization 

 Free energy of the ion-electron system (eV)
  ---------------------------------------------------
  alpha Z        PSCENC =      1482.04539224
  Ewald energy   TEWEN  =    -31772.88536821
  -Hartree energ DENC   =    -16376.63794557
  -exchange      EXHF   =      1502.73065028
  -V(xc)+E(xc)   XCENC  =      -596.12270467
  PAW double counting   =    119547.79472820  -117663.18319179
  entropy T*S    EENTRO =        -0.00000000
  eigenvalues    EBANDS =     -3468.70761016
  atomic energy  EATOM  =     47138.37786884
  Solvation  Ediel_sol  =         0.00000000
  ---------------------------------------------------
  free energy    TOTEN  =      -206.58818084 eV

  energy without entropy =     -206.58818084  energy(sigma->0) =     -206.58818084
  exchange ACFDT corr.  =         0.00000000  see jH, gK, PRB 81, 115126


--------------------------------------------------------------------------------------------------------




--------------------------------------- Iteration      1(   9)  ---------------------------------------


    POTLOK:  cpu time    0.2502: real time    0.2524
    SETDIJ:  cpu time    0.9166: real time    0.9175
     EDDAV:  cpu time   17.7482: real time   17.8087
       DOS:  cpu time    0.0008: real time    0.0008
    CHARGE:  cpu time    0.0740: real time    0.0740
    MIXING:  cpu time    0.0013: real time    0.0013
    --------------------------------------------
      LOOP:  cpu time   18.9911: real time   19.0546

 eigenvalue-minimisations  :   732
 total energy-change (2. order) : 0.8285816E-01  (-0.1126166E-01)
 number of electron     564.0000008 magnetization 
 augmentation part      144.0686814 magnetization 

 Free energy of the ion-electron system (eV)
  ---------------------------------------------------
  alpha Z        PSCENC =      1482.04539224
  Ewald energy   TEWEN  =    -31772.88536821
  -Hartree energ DENC   =    -16369.51208042
  -exchange      EXHF   =      1502.20344731
  -V(xc)+E(xc)   XCENC  =      -595.65650832
  PAW double counting   =    132398.30623133  -130512.48829266
  entropy T*S    EENTRO =        -0.00000000
  eigenvalues    EBANDS =     -3476.89601277
  atomic energy  EATOM  =     47138.37786884
  Solvation  Ediel_sol  =         0.00000000
  ---------------------------------------------------
  free energy    TOTEN  =      -206.50532268 eV

  energy without entropy =     -206.50532268  energy(sigma->0) =     -206.50532268
  exchange ACFDT corr.  =         0.00000000  see jH, gK, PRB 81, 115126


--------------------------------------------------------------------------------------------------------




--------------------------------------- Iteration      1(  10)  ---------------------------------------


    POTLOK:  cpu time    0.2451: real time    0.2478
    SETDIJ:  cpu time    0.9158: real time    0.9277
     EDDAV:  cpu time   17.7461: real time   18.1567
       DOS:  cpu time    0.0008: real time    0.0008
    CHARGE:  cpu time    0.0733: real time    0.0733
    MIXING:  cpu time    0.0012: real time    0.0012
    --------------------------------------------
      LOOP:  cpu time   18.9823: real time   19.4076

 eigenvalue-minimisations  :   716
 total energy-change (2. order) : 0.5535684E-01  (-0.3562481E-02)
 number of electron     564.0000009 magnetization 
 augmentation part      143.9892080 magnetization 

 Free energy of the ion-electron system (eV)
  ---------------------------------------------------
  alpha Z        PSCENC =      1482.04539224
  Ewald energy   TEWEN  =    -31772.88536821
  -Hartree energ DENC   =    -16367.81439103
  -exchange      EXHF   =      1502.29477477
  -V(xc)+E(xc)   XCENC  =      -595.30446522
  PAW double counting   =    140536.07330576  -138649.79533013
  entropy T*S    EENTRO =        -0.00000000
  eigenvalues    EBANDS =     -3479.44175286
  atomic energy  EATOM  =     47138.37786884
  Solvation  Ediel_sol  =         0.00000000
  ---------------------------------------------------
  free energy    TOTEN  =      -206.44996584 eV

  energy without entropy =     -206.44996584  energy(sigma->0) =     -206.44996584
  exchange ACFDT corr.  =         0.00000000  see jH, gK, PRB 81, 115126


--------------------------------------------------------------------------------------------------------




--------------------------------------- Iteration      1(  11)  ---------------------------------------


    POTLOK:  cpu time    0.2438: real time    0.2460
    SETDIJ:  cpu time    0.9145: real time    0.9149
     EDDAV:  cpu time   18.3746: real time   18.6094
       DOS:  cpu time    0.0008: real time    0.0008
    CHARGE:  cpu time    0.0727: real time    0.0728
    MIXING:  cpu time    0.0012: real time    0.0012
    --------------------------------------------
      LOOP:  cpu time   19.6077: real time   19.8451

 eigenvalue-minimisations  :   748
 total energy-change (2. order) : 0.1468236E-01  (-0.2406643E-02)
 number of electron     564.0000009 magnetization 
 augmentation part      143.9155222 magnetization 

 Free energy of the ion-electron system (eV)
  ---------------------------------------------------
  alpha Z        PSCENC =      1482.04539224
  Ewald energy   TEWEN  =    -31772.88536821
  -Hartree energ DENC   =    -16366.80795297
  -exchange      EXHF   =      1502.49917217
  -V(xc)+E(xc)   XCENC  =      -595.08337003
  PAW double counting   =    145461.76300615  -143575.13110954
  entropy T*S    EENTRO =        -0.00000000
  eigenvalues    EBANDS =     -3481.21292212
  atomic energy  EATOM  =     47138.37786884
  Solvation  Ediel_sol  =         0.00000000
  ---------------------------------------------------
  free energy    TOTEN  =      -206.43528347 eV

  energy without entropy =     -206.43528347  energy(sigma->0) =     -206.43528347
  exchange ACFDT corr.  =         0.00000000  see jH, gK, PRB 81, 115126


--------------------------------------------------------------------------------------------------------




--------------------------------------- Iteration      1(  12)  ---------------------------------------


    POTLOK:  cpu time    0.2442: real time    0.2470
    SETDIJ:  cpu time    0.9216: real time    0.9224
     EDDAV:  cpu time   18.9363: real time   19.1938
       DOS:  cpu time    0.0076: real time    0.0077
    CHARGE:  cpu time    0.0744: real time    0.0749
    MIXING:  cpu time    0.0018: real time    0.0018
    --------------------------------------------
      LOOP:  cpu time   20.1858: real time   20.4475

 eigenvalue-minimisations  :   796
 total energy-change (2. order) : 0.3102583E-02  (-0.6852476E-03)
 number of electron     564.0000009 magnetization 
 augmentation part      143.8807817 magnetization 

 Free energy of the ion-electron system (eV)
  ---------------------------------------------------
  alpha Z        PSCENC =      1482.04539224
  Ewald energy   TEWEN  =    -31772.88536821
  -Hartree energ DENC   =    -16366.26232182
  -exchange      EXHF   =      1502.68438157
  -V(xc)+E(xc)   XCENC  =      -594.95093213
  PAW double counting   =    148393.90824413  -146506.99880131
  entropy T*S    EENTRO =        -0.00000000
  eigenvalues    EBANDS =     -3482.35064421
  atomic energy  EATOM  =     47138.37786884
  Solvation  Ediel_sol  =         0.00000000
  ---------------------------------------------------
  free energy    TOTEN  =      -206.43218089 eV

  energy without entropy =     -206.43218089  energy(sigma->0) =     -206.43218089
  exchange ACFDT corr.  =         0.00000000  see jH, gK, PRB 81, 115126


--------------------------------------------------------------------------------------------------------




--------------------------------------- Iteration      1(  13)  ---------------------------------------


    POTLOK:  cpu time    0.2497: real time    0.2587
    SETDIJ:  cpu time    0.9210: real time    0.9297
     EDDAV:  cpu time   18.6697: real time   18.8962
       DOS:  cpu time    0.0028: real time    0.0028
    CHARGE:  cpu time    0.0734: real time    0.0734
    MIXING:  cpu time    0.0013: real time    0.0013
    --------------------------------------------
      LOOP:  cpu time   19.9179: real time   20.1621

 eigenvalue-minimisations  :   748
 total energy-change (2. order) : 0.8078834E-03  (-0.1640789E-03)
 number of electron     564.0000009 magnetization 
 augmentation part      143.8665446 magnetization 

 Free energy of the ion-electron system (eV)
  ---------------------------------------------------
  alpha Z        PSCENC =      1482.04539224
  Ewald energy   TEWEN  =    -31772.88536821
  -Hartree energ DENC   =    -16366.09780239
  -exchange      EXHF   =      1502.77482818
  -V(xc)+E(xc)   XCENC  =      -594.87004705
  PAW double counting   =    150107.40228900  -148220.30162908
  entropy T*S    EENTRO =        -0.00000000
  eigenvalues    EBANDS =     -3482.87690454
  atomic energy  EATOM  =     47138.37786884
  Solvation  Ediel_sol  =         0.00000000
  ---------------------------------------------------
  free energy    TOTEN  =      -206.43137301 eV

  energy without entropy =     -206.43137301  energy(sigma->0) =     -206.43137301
  exchange ACFDT corr.  =         0.00000000  see jH, gK, PRB 81, 115126


--------------------------------------------------------------------------------------------------------




--------------------------------------- Iteration      1(  14)  ---------------------------------------


    POTLOK:  cpu time    0.2443: real time    0.2472
    SETDIJ:  cpu time    0.9176: real time    0.9183
     EDDAV:  cpu time   18.8752: real time   19.0772
       DOS:  cpu time    0.0008: real time    0.0008
    CHARGE:  cpu time    0.0729: real time    0.0731
    MIXING:  cpu time    0.0012: real time    0.0012
    --------------------------------------------
      LOOP:  cpu time   20.1121: real time   20.3178

 eigenvalue-minimisations  :   732
 total energy-change (2. order) : 0.1365232E-03  (-0.5999144E-04)
 number of electron     564.0000009 magnetization 
 augmentation part      143.8598558 magnetization 

 Free energy of the ion-electron system (eV)
  ---------------------------------------------------
  alpha Z        PSCENC =      1482.04539224
  Ewald energy   TEWEN  =    -31772.88536821
  -Hartree energ DENC   =    -16366.12938332
  -exchange      EXHF   =      1502.79947775
  -V(xc)+E(xc)   XCENC  =      -594.82008465
  PAW double counting   =    151111.49531295  -149224.27910983
  entropy T*S    EENTRO =        -0.00000000
  eigenvalues    EBANDS =     -3483.03534225
  atomic energy  EATOM  =     47138.37786884
  Solvation  Ediel_sol  =         0.00000000
  ---------------------------------------------------
  free energy    TOTEN  =      -206.43123648 eV

  energy without entropy =     -206.43123648  energy(sigma->0) =     -206.43123648
  exchange ACFDT corr.  =         0.00000000  see jH, gK, PRB 81, 115126


--------------------------------------------------------------------------------------------------------




--------------------------------------- Iteration      1(  15)  ---------------------------------------


    POTLOK:  cpu time    0.2456: real time    0.2467
    SETDIJ:  cpu time    0.9156: real time    0.9159
     EDDAV:  cpu time   17.2638: real time   17.4422
       DOS:  cpu time    0.0008: real time    0.0008
    CHARGE:  cpu time    0.0729: real time    0.0729
    MIXING:  cpu time    0.0012: real time    0.0012
    --------------------------------------------
      LOOP:  cpu time   18.4999: real time   18.6797

 eigenvalue-minimisations  :   740
 total energy-change (2. order) :-0.6112137E-04  (-0.2609189E-04)
 number of electron     564.0000009 magnetization 
 augmentation part      143.8560819 magnetization 

 Free energy of the ion-electron system (eV)
  ---------------------------------------------------
  alpha Z        PSCENC =      1482.04539224
  Ewald energy   TEWEN  =    -31772.88536821
  -Hartree energ DENC   =    -16366.23066495
  -exchange      EXHF   =      1502.79771014
  -V(xc)+E(xc)   XCENC  =      -594.78953264
  PAW double counting   =    151702.36588327  -149815.08700868
  entropy T*S    EENTRO =        -0.00000000
  eigenvalues    EBANDS =     -3483.02557762
  atomic energy  EATOM  =     47138.37786884
  Solvation  Ediel_sol  =         0.00000000
  ---------------------------------------------------
  free energy    TOTEN  =      -206.43129761 eV

  energy without entropy =     -206.43129761  energy(sigma->0) =     -206.43129761
  exchange ACFDT corr.  =         0.00000000  see jH, gK, PRB 81, 115126


--------------------------------------------------------------------------------------------------------




--------------------------------------- Iteration      1(  16)  ---------------------------------------


    POTLOK:  cpu time    0.2450: real time    0.2474
    SETDIJ:  cpu time    0.9148: real time    0.9150
     EDDAV:  cpu time   18.0424: real time   18.2377
       DOS:  cpu time    0.0038: real time    0.0038
    CHARGE:  cpu time    0.0748: real time    0.0748
    MIXING:  cpu time    0.0018: real time    0.0018
    --------------------------------------------
      LOOP:  cpu time   19.2825: real time   19.4805

 eigenvalue-minimisations  :   708
 total energy-change (2. order) :-0.7907231E-04  (-0.1056394E-04)
 number of electron     564.0000009 magnetization 
 augmentation part      143.8539230 magnetization 

 Free energy of the ion-electron system (eV)
  ---------------------------------------------------
  alpha Z        PSCENC =      1482.04539224
  Ewald energy   TEWEN  =    -31772.88536821
  -Hartree energ DENC   =    -16366.33241898
  -exchange      EXHF   =      1502.78948111
  -V(xc)+E(xc)   XCENC  =      -594.77117187
  PAW double counting   =    152052.68353861  -150165.37314982
  entropy T*S    EENTRO =        -0.00000000
  eigenvalues    EBANDS =     -3482.96554860
  atomic energy  EATOM  =     47138.37786884
  Solvation  Ediel_sol  =         0.00000000
  ---------------------------------------------------
  free energy    TOTEN  =      -206.43137668 eV

  energy without entropy =     -206.43137668  energy(sigma->0) =     -206.43137668
  exchange ACFDT corr.  =         0.00000000  see jH, gK, PRB 81, 115126


--------------------------------------------------------------------------------------------------------




--------------------------------------- Iteration      1(  17)  ---------------------------------------


    POTLOK:  cpu time    0.2498: real time    0.2525
    SETDIJ:  cpu time    0.9157: real time    0.9160
     EDDAV:  cpu time   16.8547: real time   16.8657
       DOS:  cpu time    0.0008: real time    0.0008
    CHARGE:  cpu time    0.0727: real time    0.0728
    MIXING:  cpu time    0.0012: real time    0.0012
    --------------------------------------------
      LOOP:  cpu time   18.0949: real time   18.1089

 eigenvalue-minimisations  :   604
 total energy-change (2. order) :-0.5583939E-04  (-0.4478909E-05)
 number of electron     564.0000009 magnetization 
 augmentation part      143.8524866 magnetization 

 Free energy of the ion-electron system (eV)
  ---------------------------------------------------
  alpha Z        PSCENC =      1482.04539224
  Ewald energy   TEWEN  =    -31772.88536821
  -Hartree energ DENC   =    -16366.41321857
  -exchange      EXHF   =      1502.78317727
  -V(xc)+E(xc)   XCENC  =      -594.76009047
  PAW double counting   =    152260.91341099  -150373.58775950
  entropy T*S    EENTRO =        -0.00000000
  eigenvalues    EBANDS =     -3482.90484512
  atomic energy  EATOM  =     47138.37786884
  Solvation  Ediel_sol  =         0.00000000
  ---------------------------------------------------
  free energy    TOTEN  =      -206.43143252 eV

  energy without entropy =     -206.43143252  energy(sigma->0) =     -206.43143252
  exchange ACFDT corr.  =         0.00000000  see jH, gK, PRB 81, 115126


--------------------------------------------------------------------------------------------------------




--------------------------------------- Iteration      1(  18)  ---------------------------------------


    POTLOK:  cpu time    0.2449: real time    0.2461
    SETDIJ:  cpu time    0.9312: real time    0.9395
     EDDAV:  cpu time   17.6276: real time   17.7687
       DOS:  cpu time    0.0009: real time    0.0009
    CHARGE:  cpu time    0.0727: real time    0.0728
    MIXING:  cpu time    0.0014: real time    0.0014
    --------------------------------------------
      LOOP:  cpu time   18.8787: real time   19.0294

 eigenvalue-minimisations  :   556
 total energy-change (2. order) :-0.3381493E-04  (-0.2105175E-05)
 number of electron     564.0000009 magnetization 
 augmentation part      143.8517521 magnetization 

 Free energy of the ion-electron system (eV)
  ---------------------------------------------------
  alpha Z        PSCENC =      1482.04539224
  Ewald energy   TEWEN  =    -31772.88536821
  -Hartree energ DENC   =    -16366.47265189
  -exchange      EXHF   =      1502.77968693
  -V(xc)+E(xc)   XCENC  =      -594.75335179
  PAW double counting   =    152384.71983465  -150497.38697359
  entropy T*S    EENTRO =        -0.00000000
  eigenvalues    EBANDS =     -3482.85590351
  atomic energy  EATOM  =     47138.37786884
  Solvation  Ediel_sol  =         0.00000000
  ---------------------------------------------------
  free energy    TOTEN  =      -206.43146633 eV

  energy without entropy =     -206.43146633  energy(sigma->0) =     -206.43146633
  exchange ACFDT corr.  =         0.00000000  see jH, gK, PRB 81, 115126


--------------------------------------------------------------------------------------------------------




--------------------------------------- Iteration      1(  19)  ---------------------------------------


    POTLOK:  cpu time    0.2558: real time    0.2678
    SETDIJ:  cpu time    0.9151: real time    0.9287
     EDDAV:  cpu time   18.1000: real time   18.4539
       DOS:  cpu time    0.0008: real time    0.0008
    CHARGE:  cpu time    0.0732: real time    0.0735
    MIXING:  cpu time    0.0014: real time    0.0014
    --------------------------------------------
      LOOP:  cpu time   19.3464: real time   19.7262

 eigenvalue-minimisations  :   532
 total energy-change (2. order) :-0.1926050E-04  (-0.1030064E-05)
 number of electron     564.0000009 magnetization 
 augmentation part      143.8512083 magnetization 

 Free energy of the ion-electron system (eV)
  ---------------------------------------------------
  alpha Z        PSCENC =      1482.04539224
  Ewald energy   TEWEN  =    -31772.88536821
  -Hartree energ DENC   =    -16366.52004778
  -exchange      EXHF   =      1502.77836709
  -V(xc)+E(xc)   XCENC  =      -594.74907838
  PAW double counting   =    152457.80775680  -150570.47162852
  entropy T*S    EENTRO =        -0.00000000
  eigenvalues    EBANDS =     -3482.81474767
  atomic energy  EATOM  =     47138.37786884
  Solvation  Ediel_sol  =         0.00000000
  ---------------------------------------------------
  free energy    TOTEN  =      -206.43148559 eV

  energy without entropy =     -206.43148559  energy(sigma->0) =     -206.43148559
  exchange ACFDT corr.  =         0.00000000  see jH, gK, PRB 81, 115126


--------------------------------------------------------------------------------------------------------




--------------------------------------- Iteration      1(  20)  ---------------------------------------


    POTLOK:  cpu time    0.2478: real time    0.2498
    SETDIJ:  cpu time    0.9173: real time    0.9176
     EDDAV:  cpu time   17.6010: real time   17.7061
       DOS:  cpu time    0.0063: real time    0.0063
    CHARGE:  cpu time    0.0735: real time    0.0735
    MIXING:  cpu time    0.0016: real time    0.0016
    --------------------------------------------
      LOOP:  cpu time   18.8476: real time   18.9549

 eigenvalue-minimisations  :   460
 total energy-change (2. order) :-0.1052917E-04  (-0.5255559E-06)
 number of electron     564.0000009 magnetization 
 augmentation part      143.8508849 magnetization 

 Free energy of the ion-electron system (eV)
  ---------------------------------------------------
  alpha Z        PSCENC =      1482.04539224
  Ewald energy   TEWEN  =    -31772.88536821
  -Hartree energ DENC   =    -16366.55635994
  -exchange      EXHF   =      1502.77769534
  -V(xc)+E(xc)   XCENC  =      -594.74635683
  PAW double counting   =    152501.46833487  -150614.13081660
  entropy T*S    EENTRO =        -0.00000000
  eigenvalues    EBANDS =     -3482.78188584
  atomic energy  EATOM  =     47138.37786884
  Solvation  Ediel_sol  =         0.00000000
  ---------------------------------------------------
  free energy    TOTEN  =      -206.43149612 eV

  energy without entropy =     -206.43149612  energy(sigma->0) =     -206.43149612
  exchange ACFDT corr.  =         0.00000000  see jH, gK, PRB 81, 115126


--------------------------------------------------------------------------------------------------------




--------------------------------------- Iteration      1(  21)  ---------------------------------------


    POTLOK:  cpu time    0.2532: real time    0.2539
    SETDIJ:  cpu time    0.9223: real time    0.9225
     EDDAV:  cpu time   17.0949: real time   17.2191
       DOS:  cpu time    0.0010: real time    0.0010
    CHARGE:  cpu time    0.0760: real time    0.0760
    MIXING:  cpu time    0.0033: real time    0.0033
    --------------------------------------------
      LOOP:  cpu time   18.3507: real time   18.4757

 eigenvalue-minimisations  :   428
 total energy-change (2. order) :-0.5632224E-05  (-0.3164197E-06)
 number of electron     564.0000009 magnetization 
 augmentation part      143.8506610 magnetization 

 Free energy of the ion-electron system (eV)
  ---------------------------------------------------
  alpha Z        PSCENC =      1482.04539224
  Ewald energy   TEWEN  =    -31772.88536821
  -Hartree energ DENC   =    -16366.58416708
  -exchange      EXHF   =      1502.77735378
  -V(xc)+E(xc)   XCENC  =      -594.74458636
  PAW double counting   =    152527.79224757  -150640.45423786
  entropy T*S    EENTRO =        -0.00000000
  eigenvalues    EBANDS =     -3482.75600468
  atomic energy  EATOM  =     47138.37786884
  Solvation  Ediel_sol  =         0.00000000
  ---------------------------------------------------
  free energy    TOTEN  =      -206.43150175 eV

  energy without entropy =     -206.43150175  energy(sigma->0) =     -206.43150175
  exchange ACFDT corr.  =         0.00000000  see jH, gK, PRB 81, 115126


--------------------------------------------------------------------------------------------------------




--------------------------------------- Iteration      1(  22)  ---------------------------------------


    POTLOK:  cpu time    0.2556: real time    0.2579
    SETDIJ:  cpu time    0.9283: real time    0.9286
     EDDAV:  cpu time   17.9215: real time   18.3089
       DOS:  cpu time    0.0036: real time    0.0036
    --------------------------------------------
      LOOP:  cpu time   19.1089: real time   19.4990

 eigenvalue-minimisations  :   428
 total energy-change (2. order) :-0.2964669E-05  (-0.1657545E-06)
 number of electron     564.0000009 magnetization 
 augmentation part      143.8506610 magnetization 

 Free energy of the ion-electron system (eV)
  ---------------------------------------------------
  alpha Z        PSCENC =      1482.04539224
  Ewald energy   TEWEN  =    -31772.88536821
  -Hartree energ DENC   =    -16366.60495256
  -exchange      EXHF   =      1502.77701760
  -V(xc)+E(xc)   XCENC  =      -594.74344019
  PAW double counting   =    152543.35599728  -150656.01796102
  entropy T*S    EENTRO =        -0.00000000
  eigenvalues    EBANDS =     -3482.73605869
  atomic energy  EATOM  =     47138.37786884
  Solvation  Ediel_sol  =         0.00000000
  ---------------------------------------------------
  free energy    TOTEN  =      -206.43150472 eV

  energy without entropy =     -206.43150472  energy(sigma->0) =     -206.43150472
  exchange ACFDT corr.  =         0.00000000  see jH, gK, PRB 81, 115126


--------------------------------------------------------------------------------------------------------




 average (electrostatic) potential at core
  the test charge radii are     1.0698  1.1897
  (the norm of the test charge is              1.0000)
       1 -30.5213       2 -30.3872       3 -30.5013       4 -30.5216       5 -30.5645
       6 -30.5028       7 -30.4881       8 -30.4770       9 -30.4741      10 -30.3026
      11 -30.2983      12 -30.5406      13 -30.5410      14 -30.4848      15 -30.4870
      16 -30.2902      17 -30.8761      18 -30.4187      19 -30.4665      20 -30.8757
      21 -30.2907      22 -30.4649      23 -30.4182      24 -30.4736      25 -30.5399
      26 -30.3020      27 -30.4865      28 -30.4736      29 -30.5415      30 -30.3022
      31 -30.4847      32 -86.2382      33 -86.6998      34 -86.2353      35 -86.1329
      36 -86.4500      37 -86.2369      38 -86.2719      39 -86.2347      40 -86.1581
      41 -86.3077      42 -85.6724      43 -86.3488      44 -86.3103      45 -86.2885
      46 -86.3483      47 -86.2638      48 -86.2368      49 -86.4505      50 -86.2269
      51 -86.2744      52 -86.7067      53 -86.2354      54 -86.1369      55 -86.2298
      56 -86.2886      57 -86.3057      58 -86.2691      59 -86.3452      60 -86.3081
      61 -86.1585      62 -86.3436      63 -85.6681
 
 
 
 E-fermi :   1.5843     XC(G=0):  -6.4671     alpha+bet : -7.1524


 k-point     1 :       0.0000    0.0000    0.0000
  band No.  band energies     occupation 
      1     -11.6351      2.00000
      2     -11.0271      2.00000
      3     -10.8751      2.00000
      4     -10.8553      2.00000
      5     -10.8209      2.00000
      6     -10.8001      2.00000
      7     -10.7694      2.00000
      8     -10.7625      2.00000
      9     -10.7307      2.00000
     10     -10.7130      2.00000
     11     -10.7029      2.00000
     12     -10.7001      2.00000
     13     -10.6993      2.00000
     14     -10.6931      2.00000
     15     -10.6810      2.00000
     16     -10.6766      2.00000
     17     -10.6496      2.00000
     18     -10.6483      2.00000
     19     -10.6476      2.00000
     20     -10.6469      2.00000
     21     -10.6409      2.00000
     22     -10.5938      2.00000
     23     -10.5907      2.00000
     24     -10.5861      2.00000
     25     -10.5766      2.00000
[...]
     0.000000000  0.000000000 13.086768000     0.000000000  0.000000000  0.076413061

  length of vectors
    13.086768000 13.086768000 13.086768000     0.076413061  0.076413061  0.076413061


 FORCES acting on ions
    electron-ion (+dipol)            ewald-force                    non-local-force                 convergence-correction
 -----------------------------------------------------------------------------------------------
   0.409E+00 -.134E+02 0.891E+00   -.449E+00 0.141E+02 -.886E+00   0.373E-01 -.637E+00 -.137E-01   -.109E-03 0.203E-03 -.241E-03
   0.164E+00 0.106E+01 -.827E+00   -.147E+00 -.454E+00 0.792E+00   -.778E-02 -.577E+00 0.403E-01   0.672E-05 -.183E-03 -.544E-04
   0.782E+00 0.910E+01 -.681E-02   -.765E+00 -.893E+01 -.257E-01   -.134E-01 -.168E+00 0.263E-01   0.111E-03 0.209E-03 -.101E-03
   -.129E+01 -.137E+02 0.168E+00   0.128E+01 0.144E+02 -.131E+00   0.176E-01 -.614E+00 -.450E-01   0.218E-03 0.116E-03 0.109E-03
   0.948E-01 -.304E+02 -.539E-01   -.754E-01 0.301E+02 0.776E-01   -.339E-01 0.307E+00 -.653E-01   -.247E-03 0.526E-03 0.224E-04
   0.110E-01 0.844E+01 -.872E+00   -.233E-01 -.827E+01 0.840E+00   0.315E-01 -.160E+00 0.188E-01   -.204E-03 -.311E-04 -.245E-03
   -.290E+00 0.169E+02 -.443E-01   0.300E+00 -.171E+02 0.345E-01   -.110E-01 0.174E+00 -.735E-02   -.132E-03 -.324E-03 0.143E-03
   0.547E+02 0.815E+02 0.530E+01   -.539E+02 -.810E+02 -.608E+01   -.722E+00 -.452E+00 0.756E+00   0.119E-03 0.212E-03 -.319E-03
   -.527E+02 0.811E+02 -.593E+01   0.519E+02 -.805E+02 0.663E+01   0.703E+00 -.468E+00 -.684E+00   0.501E-04 -.472E-04 -.557E-04
   0.275E+02 -.597E+02 0.255E+02   -.262E+02 0.606E+02 -.271E+02   -.121E+01 -.913E+00 0.159E+01   -.963E-04 0.258E-03 -.165E-05
   -.261E+02 -.582E+02 -.252E+02   0.248E+02 0.591E+02 0.268E+02   0.123E+01 -.866E+00 -.154E+01   -.358E-04 0.590E-04 -.139E-03
   -.236E+02 0.203E+02 0.117E+02   0.232E+02 -.204E+02 -.122E+02   0.388E+00 0.250E-01 0.485E+00   -.115E-04 -.177E-03 -.221E-03
   0.214E+02 0.213E+02 -.100E+02   -.210E+02 -.212E+02 0.106E+02   -.366E+00 -.512E-01 -.556E+00   -.139E-03 -.363E-03 -.330E-03
   -.395E+01 -.957E+01 0.249E+02   0.369E+01 0.916E+01 -.252E+02   0.221E+00 0.388E+00 0.280E+00   -.883E-05 -.906E-04 -.384E-04
   0.411E+01 -.895E+01 -.254E+02   -.384E+01 0.863E+01 0.256E+02   -.236E+00 0.267E+00 -.255E+00   -.354E-04 -.255E-03 0.207E-03
   0.370E+02 -.200E+02 0.383E+02   -.382E+02 0.186E+02 -.395E+02   0.118E+01 0.130E+01 0.112E+01   -.590E-04 -.228E-04 -.472E-04
   0.935E+02 -.772E+02 -.936E+02   -.930E+02 0.761E+02 0.931E+02   -.525E+00 0.110E+01 0.493E+00   -.997E-04 -.454E-03 0.121E-03
   0.123E+00 0.961E+01 0.868E+00   -.408E+00 -.960E+01 -.120E+01   0.279E+00 -.164E-02 0.324E+00   0.970E-04 0.512E-04 0.930E-04
   0.413E+01 0.161E+02 -.582E+01   -.430E+01 -.159E+02 0.602E+01   0.169E+00 -.230E+00 -.195E+00   0.123E-03 0.180E-03 0.120E-05
   -.935E+02 -.787E+02 0.944E+02   0.930E+02 0.777E+02 -.939E+02   0.455E+00 0.101E+01 -.461E+00   -.266E-03 -.602E-04 -.793E-05
   -.380E+02 -.198E+02 -.384E+02   0.392E+02 0.185E+02 0.397E+02   -.115E+01 0.127E+01 -.117E+01   -.686E-04 -.231E-03 -.136E-03
   -.381E+01 0.154E+02 0.451E+01   0.402E+01 -.153E+02 -.473E+01   -.192E+00 -.144E+00 0.197E+00   -.882E-04 -.120E-03 0.413E-04
   0.218E+00 0.934E+01 -.152E+01   0.101E+00 -.930E+01 0.180E+01   -.322E+00 -.540E-01 -.270E+00   -.830E-05 -.186E-03 0.117E-03
   0.528E+01 0.808E+02 0.530E+02   -.602E+01 -.803E+02 -.523E+02   0.710E+00 -.458E+00 -.704E+00   -.106E-03 0.130E-03 -.704E-04
   0.985E+01 0.210E+02 -.217E+02   -.104E+02 -.210E+02 0.214E+02   0.515E+00 -.497E-01 0.338E+00   -.119E-03 0.212E-03 0.451E-04
   0.252E+02 -.593E+02 0.266E+02   -.268E+02 0.602E+02 -.253E+02   0.157E+01 -.866E+00 -.122E+01   0.341E-04 -.136E-03 -.594E-04
   0.242E+02 -.841E+01 -.413E+01   -.245E+02 0.808E+01 0.388E+01   0.249E+00 0.307E+00 0.242E+00   0.212E-04 0.590E-04 -.183E-04
   -.437E+01 0.809E+02 -.540E+02   0.517E+01 -.805E+02 0.533E+02   -.775E+00 -.406E+00 0.703E+00   -.150E-03 0.910E-04 0.142E-03
   -.105E+02 0.214E+02 0.232E+02   0.110E+02 -.213E+02 -.228E+02   -.530E+00 -.196E-01 -.389E+00   -.114E-03 -.300E-03 -.175E-03
   -.254E+02 -.604E+02 -.284E+02   0.271E+02 0.613E+02 0.270E+02   -.161E+01 -.842E+00 0.124E+01   0.435E-04 0.837E-04 0.178E-03
   -.237E+02 -.886E+01 0.379E+01   0.240E+02 0.852E+01 -.355E+01   -.265E+00 0.316E+00 -.240E+00   0.364E-04 0.141E-03 -.135E-05
   0.148E+02 0.101E+02 0.178E+02   -.146E+02 -.104E+02 -.188E+02   -.247E+00 0.267E+00 0.869E+00   -.629E-04 0.161E-04 -.259E-04
   -.197E+00 0.109E+03 0.315E+00   0.435E+01 -.115E+03 -.449E+01   -.378E+01 0.552E+01 0.380E+01   -.426E-04 0.444E-04 0.199E-03
   0.188E+02 -.352E+01 -.342E+01   -.194E+02 0.355E+01 0.336E+01   0.527E+00 -.220E-01 0.503E-01   0.248E-04 -.258E-04 -.147E-05
   -.765E+01 -.223E+02 0.647E+01   0.791E+01 0.228E+02 -.671E+01   -.240E+00 -.483E+00 0.219E+00   0.112E-03 0.133E-05 0.105E-04
   -.206E+02 -.230E+02 0.197E+02   0.203E+02 0.244E+02 -.194E+02   0.273E+00 -.128E+01 -.309E+00   -.766E-04 0.340E-04 -.553E-06
   -.179E+02 0.107E+02 -.148E+02   0.189E+02 -.110E+02 0.145E+02   -.899E+00 0.267E+00 0.261E+00   -.593E-04 0.137E-04 0.632E-04
   -.744E+01 0.466E+01 0.832E+01   0.752E+01 -.458E+01 -.847E+01   -.679E-01 -.764E-01 0.147E+00   0.897E-05 0.453E-04 -.548E-04
   0.513E+01 -.430E+01 -.197E+02   -.515E+01 0.445E+01 0.203E+02   0.763E-02 -.138E+00 -.576E+00   -.104E-03 0.943E-05 0.718E-04
   0.501E+00 -.258E+01 0.107E+01   -.190E+00 0.355E+01 -.841E+00   -.288E+00 -.904E+00 -.208E+00   -.918E-05 -.156E-03 -.718E-04
   -.262E+01 0.216E+02 -.112E+02   0.262E+01 -.216E+02 0.113E+02   0.360E-02 -.302E-01 -.122E+00   0.939E-04 -.764E-04 -.707E-04
   0.741E+02 -.811E+02 0.737E+02   -.784E+02 0.853E+02 -.779E+02   0.392E+01 -.387E+01 0.383E+01   -.474E-04 0.381E-04 0.861E-04
   0.329E+02 -.196E+02 -.232E+02   -.348E+02 0.186E+02 0.230E+02   0.176E+01 0.852E+00 0.213E+00   0.351E-06 -.106E-04 -.458E-04
   -.119E+02 0.251E+02 -.223E+01   0.121E+02 -.253E+02 0.221E+01   -.203E+00 0.147E+00 0.223E-01   -.283E-04 -.158E-03 -.137E-05
   0.266E+01 0.168E+02 0.290E+01   -.276E+01 -.168E+02 -.305E+01   0.888E-01 0.782E-01 0.142E+00   -.149E-03 -.587E-04 0.205E-04
   -.247E+02 -.191E+02 0.330E+02   0.245E+02 0.182E+02 -.349E+02   0.184E+00 0.862E+00 0.174E+01   0.141E-04 0.487E-04 -.427E-04
   -.710E+01 -.123E+02 -.638E+01   0.725E+01 0.125E+02 0.647E+01   -.137E+00 -.162E+00 -.820E-01   0.150E-03 0.622E-04 0.184E-04
   0.180E+02 0.112E+02 0.134E+02   -.189E+02 -.116E+02 -.130E+02   0.889E+00 0.335E+00 -.316E+00   0.891E-04 0.453E-04 0.866E-04
   0.209E+02 -.236E+02 -.221E+02   -.207E+02 0.250E+02 0.219E+02   -.176E+00 -.132E+01 0.139E+00   0.139E-03 0.954E-04 -.907E-04
   -.363E+01 -.338E+01 0.213E+02   0.354E+01 0.344E+01 -.220E+02   0.830E-01 -.561E-01 0.648E+00   -.160E-05 -.180E-04 -.869E-05
   0.660E+01 0.532E+01 -.779E+01   -.669E+01 -.535E+01 0.792E+01   0.775E-01 0.316E-01 -.121E+00   -.215E-04 -.627E-04 0.683E-05
   0.160E+01 0.111E+03 -.174E+01   -.576E+01 -.117E+03 0.585E+01   0.378E+01 0.568E+01 -.374E+01   0.241E-03 0.113E-03 -.314E-04
   -.131E+02 0.110E+02 -.183E+02   0.127E+02 -.114E+02 0.193E+02   0.329E+00 0.320E+00 -.902E+00   0.146E-05 -.454E-04 -.220E-04
   0.731E+01 -.213E+02 -.660E+01   -.756E+01 0.218E+02 0.684E+01   0.235E+00 -.418E+00 -.222E+00   -.546E-04 0.114E-03 -.171E-04
   -.186E+02 -.357E+01 0.498E+01   0.192E+02 0.365E+01 -.498E+01   -.484E+00 -.658E-01 0.144E-02   0.161E-04 0.892E-04 -.385E-04
   -.312E+01 0.175E+02 -.280E+01   0.327E+01 -.177E+02 0.296E+01   -.141E+00 0.173E+00 -.148E+00   0.251E-04 -.103E-04 0.457E-04
   0.112E+02 0.232E+02 0.208E+01   -.113E+02 -.233E+02 -.206E+01   0.112E+00 0.889E-01 -.238E-01   0.599E-04 0.119E-04 0.135E-03
   0.604E+01 -.104E+02 0.651E+01   -.620E+01 0.105E+02 -.661E+01   0.154E+00 -.126E-01 0.912E-01   -.298E-04 0.128E-04 0.377E-05
   0.226E+02 -.183E+02 -.331E+02   -.223E+02 0.174E+02 0.350E+02   -.246E+00 0.868E+00 -.173E+01   -.130E-04 -.863E-05 0.102E-04
   0.242E+01 0.251E+02 0.126E+02   -.239E+01 -.253E+02 -.128E+02   -.356E-01 0.115E+00 0.197E+00   -.182E-04 -.121E-03 -.126E-03
   -.122E+01 -.274E+01 -.252E+00   0.107E+01 0.372E+01 -.752E-01   0.134E+00 -.905E+00 0.297E+00   -.792E-05 0.317E-05 0.532E-04
   -.333E+02 -.195E+02 0.255E+02   0.353E+02 0.186E+02 -.254E+02   -.177E+01 0.855E+00 -.120E+00   0.556E-04 -.328E-04 -.281E-04
   -.735E+02 -.814E+02 -.738E+02   0.778E+02 0.855E+02 0.780E+02   -.395E+01 -.379E+01 -.386E+01   -.579E-04 0.423E-04 0.422E-04
 -----------------------------------------------------------------------------------------------
   0.313E+00 -.166E+01 -.435E+00   0.341E-12 -.128E-12 0.213E-12   -.318E+00 0.141E+01 0.238E+00   -.989E-03 -.395E-03 -.866E-03
 
 
 POSITION                                       TOTAL-FORCE (eV/Angst)
 -----------------------------------------------------------------------------------
      0.01267      0.11384      6.50124         0.000471     -0.000912      0.000586
      0.02858      6.66242     13.04585         0.000527     -0.000367      0.000361
      0.00554      6.41314      6.49144         0.000224     -0.000554      0.000081
      6.56706      0.12232     13.04510         0.000175     -0.000396      0.000272
      6.53150     13.06318      6.51486         0.000872     -0.000939     -0.000325
      6.57550      6.40695     13.05102        -0.000599     -0.000469      0.001166
      6.56424      6.54585      6.49864        -0.000291     -0.000111     -0.000059
      0.13220      3.31010      3.04902        -0.000940     -0.001591      0.000273
     13.00938      3.31673      9.92201        -0.000094     -0.000637      0.000281
      0.14204      9.79225      3.15068        -0.000076     -0.000151     -0.000005
     12.97548      9.78627      9.84589        -0.000360     -0.000401      0.000072
      6.52894      3.22501      3.17674         0.000241     -0.000760      0.000557
      6.61341      3.23147      9.82654         0.000894      0.001046      0.000917
      6.54973      9.78208      3.20566         0.000136     -0.000510      0.000356
      6.55598      9.78569      9.78767         0.000108     -0.000102      0.000342
      3.22734     12.89743      3.18841        -0.000068     -0.000187      0.000237
      3.59464     12.65957      9.46302        -0.000003      0.000318      0.000331
      3.40036      6.61819      3.33418         0.000014     -0.000171      0.000235
      3.28486      6.48164      9.79494        -0.000235     -0.000538      0.000345
      9.49081     12.66183      3.56813         0.000870     -0.000080     -0.000325
      9.89560     12.89239      9.84017        -0.000025     -0.000076      0.000148
      9.84168      6.48053      3.22166         0.000202     -0.000173      0.000219
      9.72790      6.63640      9.67918        -0.000232     -0.000188      0.000084
      3.13555      3.30535      0.06563        -0.000525     -0.000056      0.000721
      3.23099      3.23047      6.46624         0.000007     -0.000498      0.000194
      3.19869      9.81753      0.08522        -0.000655     -0.000630     -0.000354
      3.26339      9.76186      6.52168         0.000165     -0.000358      0.000191
     10.02501      3.32035     12.92279         0.000471     -0.000603      0.000559
      9.88911      3.22979      6.54346         0.000145      0.000017      0.000222
      9.91712      9.80058     12.93174         0.000064      0.000074      0.000265
      9.83870      9.78966      6.48522         0.000207     -0.000482      0.000215
      1.65401      1.62134      4.78143        -0.004122     -0.001179      0.001314
      0.99708      1.72655     12.06133        -0.001617      0.001582     -0.001731
      1.63327      8.13071      4.91819         0.002580      0.003648     -0.001742
      1.69368      8.20058     11.37127         0.004711      0.003419     -0.003628
      8.18047      1.62953      4.89079        -0.000111      0.003680     -0.001051
      8.29796      1.62043     11.40730        -0.000986      0.001506      0.000767
      8.20602      8.15105      4.83913         0.000916     -0.001014      0.004243
      8.13871      8.15160     11.43803        -0.008543     -0.004039     -0.000950
      1.72043      5.13029      1.64325        -0.004703     -0.002474     -0.000908
      1.63327      4.80562      8.19516         0.000464     -0.005833     -0.005244
      1.53295     11.51546      1.49711        -0.000704      0.001113     -0.003365
      1.56439     11.40411      8.10827         0.002844      0.001857      0.003613
      8.28091      4.77229      1.56770         0.005497      0.006507     -0.000872
      8.17912      4.87236      8.11157        -0.004038      0.000652      0.000967
      8.16464     11.41146      1.51483        -0.001374      0.001998     -0.003611
      8.17936     11.41703      8.12237         0.001783      0.008941      0.000879
      4.83970      1.60884      1.60942         0.002139     -0.000220      0.001897
      4.90948      1.63778      8.15976         0.005130      0.002457     -0.005607
      4.97440      8.13550      1.56495        -0.000306     -0.003647     -0.002146
      4.91283      8.13996      8.16308         0.000282      0.000197      0.000207
     12.14091      1.71241      0.91738        -0.002029     -0.004594      0.000481
     11.46116      1.61447      8.22796         0.006292      0.001554      0.003735
     11.43560      8.18588      1.63377        -0.003778      0.004105     -0.000286
     11.47469      8.14191      8.06622        -0.000862      0.000306      0.000447
      4.95689      4.85636      4.89714         0.002511     -0.001873      0.000008
      4.86865      4.78584     11.43651        -0.001160     -0.000767      0.004909
      4.92621     11.39491      4.89520         0.001817     -0.002858      0.002386
      4.95484     11.41739     11.49511        -0.001733      0.000503      0.000576
     11.49432      4.77649      4.78957         0.002149     -0.003682      0.000393
     11.43375      5.14250     11.33812         0.000313      0.000239     -0.001029
     11.54898     11.41309      4.88897        -0.003799     -0.002290     -0.001879
     11.58649     11.48837     11.51930        -0.001248      0.000695     -0.000934
 -----------------------------------------------------------------------------------
    total drift:                               -0.005827      0.071127     -0.012073


--------------------------------------------------------------------------------------------------------



  FREE ENERGIE OF THE ION-ELECTRON SYSTEM (eV)
  ---------------------------------------------------
  free  energy   TOTEN  =      -206.43152150 eV

  energy  without entropy=     -206.43152150  energy(sigma->0) =     -206.43152150
 
 d Force = 0.5501077E-06[-0.179E-06, 0.128E-05]  d Energy = 0.4531685E-06 0.969E-07
 d Force = 0.5364929E-02[ 0.536E-02, 0.537E-02]  d Ewald  = 0.5364930E-02-0.131E-09


--------------------------------------------------------------------------------------------------------


    POTLOK:  cpu time    1.2655: real time    1.2800


--------------------------------------------------------------------------------------------------------


 Conjugate gradient step on ions:
 trial-energy change:   -0.000000  1 .order   -0.000001   -0.000001    0.000000
  (g-gl).g = 0.115E-04      g.g   = 0.155E-04  gl.gl    = 0.152E-04
 g(Force)  = 0.155E-04   g(Stress)= 0.000E+00 ortho     = 0.534E-06
 gamma     =   0.75968
 trial     =   0.08017
 opt step  =   0.07034  (harmonic =   0.07034) maximal distance =0.00001440
 next E    =  -206.431522   (d E  =  -0.00000)


--------------------------------------------------------------------------------------------------------


  
 reached required accuracy - stopping structural energy minimisation
     LOOP+:  cpu time   73.0612: real time   76.0583
    4ORBIT:  cpu time    0.0000: real time    0.0000
 


 total charge     
 
# of ion       s       p       d       tot
------------------------------------------
    1        0.419   0.292   9.592  10.303
    2        0.420   0.300   9.591  10.311
    3        0.418   0.287   9.592  10.297
    4        0.419   0.291   9.592  10.303
    5        0.422   0.297   9.590  10.309
    6        0.417   0.285   9.592  10.294
    7        0.420   0.297   9.591  10.309
    8        0.423   0.293   9.589  10.305
    9        0.423   0.294   9.589  10.306
   10        0.425   0.292   9.591  10.307
   11        0.425   0.292   9.591  10.308
   12        0.419   0.291   9.592  10.302
   13        0.419   0.291   9.592  10.302
   14        0.421   0.297   9.591  10.308
   15        0.421   0.297   9.591  10.308
   16        0.425   0.293   9.590  10.309
   17        0.462   0.276   9.586  10.323
   18        0.425   0.308   9.591  10.323
   19        0.419   0.293   9.592  10.304
   20        0.462   0.275   9.586  10.323
   21        0.425   0.292   9.590  10.307
   22        0.419   0.293   9.592  10.303
   23        0.425   0.308   9.591  10.323
   24        0.423   0.294   9.589  10.306
   25        0.420   0.292   9.592  10.303
   26        0.424   0.289   9.591  10.304
   27        0.421   0.298   9.591  10.310
   28        0.423   0.294   9.589  10.306
   29        0.419   0.292   9.592  10.303
   30        0.425   0.292   9.591  10.307
   31        0.421   0.297   9.591  10.309
   32        1.289   2.301   0.017   3.608
   33        1.318   2.166   0.028   3.512
   34        1.289   2.306   0.018   3.613
   35        1.288   2.307   0.018   3.613
   36        1.291   2.299   0.018   3.607
   37        1.289   2.301   0.017   3.607
   38        1.288   2.303   0.017   3.609
   39        1.289   2.305   0.018   3.613
   40        1.290   2.318   0.020   3.627
   41        1.289   2.297   0.017   3.603
   42        1.306   2.264   0.019   3.590
   43        1.291   2.298   0.018   3.607
   44        1.289   2.295   0.017   3.601
   45        1.288   2.306   0.018   3.611
   46        1.291   2.297   0.018   3.606
   47        1.289   2.302   0.018   3.609
   48        1.289   2.301   0.017   3.607
   49        1.291   2.298   0.018   3.607
   50        1.289   2.304   0.018   3.612
   51        1.288   2.304   0.018   3.610
   52        1.319   2.163   0.028   3.511
   53        1.289   2.301   0.017   3.607
   54        1.288   2.307   0.018   3.613
   55        1.289   2.305   0.018   3.613
   56        1.288   2.306   0.018   3.611
   57        1.289   2.296   0.017   3.602
   58        1.289   2.303   0.018   3.609
   59        1.291   2.298   0.018   3.607
   60        1.289   2.296   0.017   3.602
   61        1.290   2.317   0.020   3.627
   62        1.291   2.298   0.018   3.607
   63        1.306   2.266   0.019   3.591
--------------------------------------------------
tot         54.502  82.406 297.898 434.805
 

 total amount of memory used by VASP MPI-rank0    77614. kBytes
=======================================================================

   base      :      30000. kBytes
   nonlr-proj:       3361. kBytes
   fftplans  :       6877. kBytes
   grid      :      11280. kBytes
   one-center:         46. kBytes
   HF        :        129. kBytes
   wavefun   :       2812. kBytes
   fock_wrk  :      23109. kBytes
 
  
  
 General timing and accounting informations for this job:
 ========================================================
  
                  Total CPU time used (sec):     2828.626
                            User time (sec):     2803.674
                          System time (sec):       24.952
                         Elapsed time (sec):     2903.651
  
                   Maximum memory used (kb):      303716.
                   Average memory used (kb):           0.
  
                          Minor page faults:       391769
                          Major page faults:            9
                 Voluntary context switches:        22050
