 # Version information for this restart file 
 # current date 2022-07-18 21:30:40.730
 # current working dir /scratch/snx3000/imosquer/aiida-vasp/70/ed/870e-78f1-4673-851d-04d1bd93e6b9
 # Program compiled at                              Fri Feb 25 10:58:09 CET 2022
 # Program compiled on                                                  daint101
 # Program compiled for                                    CP2K-9.1-CrayGNU-cuda
 # Source code revision number                                       git:d8d7100
 &GLOBAL
   ELPA_KERNEL  AVX2_BLOCK2
   PRINT_LEVEL  LOW
   PROJECT_NAME aiida
   RUN_TYPE  MD
   WALLTIME 36000
 &END GLOBAL
 &MOTION
   &MD
     ENSEMBLE  NVT
     STEPS  10000
     TIMESTEP     4.9999999999999994E-01
     STEP_START_VAL  2440
     TIME_START_VAL     1.2199999999999534E+03
     ECONS_START_VAL    -1.9261141358888890E+03
     TEMPERATURE     3.1000000000000000E+02
     &THERMOSTAT
       TYPE  CSVR
       REGION  GLOBAL
       &CSVR
         TIMECON     9.9999999999999986E+01
         &THERMOSTAT_ENERGY
               4.0686149264919408E-01
         &END THERMOSTAT_ENERGY
         &RNG_INIT
Wiener process for Thermostat # 1        1 F T F   1.2746534109639300E+00        2226915471.0        1574864986.0        2598490747.0        1773714851.0        2426570111.0         757135707.0             12345.0             12345.0             12345.0             12345.0             12345.0             12345.0             12345.0             12345.0             12345.0             12345.0             12345.0             12345.0
         &END RNG_INIT
       &END CSVR
     &END THERMOSTAT
     &AVERAGES  T
       &RESTART_AVERAGES
         ITIMES_START  1
         AVECPU     1.4654893399822122E+01
         AVEHUGONIOT     0.0000000000000000E+00
         AVETEMP_BARO     0.0000000000000000E+00
         AVEPOT    -1.9296361079564974E+03
         AVEKIN     3.5855024570505500E-01
         AVETEMP     3.3105578243575513E+02
         AVEKIN_QM     0.0000000000000000E+00
         AVETEMP_QM     0.0000000000000000E+00
         AVEVOL     4.7133268631041232E+04
         AVECELL_A     2.4256010636211915E+01
         AVECELL_B     2.5432089253917962E+01
         AVECELL_C     7.6405767942523994E+01
         AVEALPHA     9.0000000000000000E+01
         AVEBETA     9.0000000000000000E+01
         AVEGAMMA     9.0000000000000000E+01
         AVE_ECONS    -4.0720748452865137E+03
         AVE_PRESS     0.0000000000000000E+00
         AVE_PXX     0.0000000000000000E+00
       &END RESTART_AVERAGES
     &END AVERAGES
   &END MD
   &PRINT
     &TRAJECTORY  ON
       ADD_LAST  NUMERIC
       FILENAME ./Trajectory.pdb
       FORMAT  PDB
       &EACH
         MD  1
       &END EACH
     &END TRAJECTORY
     &FORCES  ON
       ADD_LAST  NUMERIC
       FILENAME ./forces.xyz
       FORMAT  XMOL
       &EACH
         MD  10
       &END EACH
     &END FORCES
   &END PRINT
 &END MOTION
 &FORCE_EVAL
   METHOD  QS
   &DFT
     BASIS_SET_FILE_NAME BASIS_MOLOPT
     POTENTIAL_FILE_NAME GTH_POTENTIALS
     &SCF
       MAX_SCF  500
       EPS_SCF     5.0000000000000004E-06
       CHOLESKY  INVERSE
       SCF_GUESS  RESTART
       &OT  T
         ALGORITHM  IRAC
         MINIMIZER  DIIS
         PRECONDITIONER  FULL_ALL
         ENERGY_GAP     5.0029999999999998E-02
       &END OT
       &OUTER_SCF  T
         EPS_SCF     5.0000000000000004E-06
         MAX_SCF  3
       &END OUTER_SCF
       &MIXING  T
         METHOD  BROYDEN_MIXING
         NBUFFER  8
       &END MIXING
     &END SCF
     &QS
       EPS_DEFAULT     9.9999999999999998E-13
       EXTRAPOLATION  ASPC
       EXTRAPOLATION_ORDER  3
     &END QS
     &MGRID
       NGRIDS  4
       CUTOFF     3.7000000000000000E+02
       REL_CUTOFF     7.0000000000000000E+01
     &END MGRID
     &XC
       DENSITY_CUTOFF     1.0000000000000000E-10
       GRADIENT_CUTOFF     1.0000000000000000E-10
       TAU_CUTOFF     1.0000000000000000E-10
       &XC_FUNCTIONAL  NO_SHORTCUT
         &PBE  T
         &END PBE
       &END XC_FUNCTIONAL
       &VDW_POTENTIAL
         POTENTIAL_TYPE  PAIR_POTENTIAL
         &PAIR_POTENTIAL
           R_CUTOFF     1.0000000000000002E+01
           TYPE  DFTD3
           PARAMETER_FILE_NAME dftd3.dat
           REFERENCE_FUNCTIONAL PBE
           CALCULATE_C9_TERM  T
           REFERENCE_C9_TERM  T
           LONG_RANGE_CORRECTION  T
         &END PAIR_POTENTIAL
       &END VDW_POTENTIAL
     &END XC
   &END DFT
   &SUBSYS
     &CELL
       A     1.2835728000000001E+01    0.0000000000000000E+00    0.0000000000000000E+00
       B     0.0000000000000000E+00    1.3458081999999999E+01    0.0000000000000000E+00
       C     0.0000000000000000E+00    0.0000000000000000E+00    4.0432191000000010E+01
       MULTIPLE_UNIT_CELL  1 1 1
     &END CELL
     &COORD
Sn    1.2548135165892290E+01    2.7345948685386623E+00    1.1953076369639009E+01
Sn    1.2412549858459899E+01    8.4856551747922158E+00    9.6840176837337353E+00
Sn    6.5684311214402884E+00    2.0093858994589544E+00    1.0673439524180965E+01
Sn    5.9452704764210935E+00    9.1140609986839429E+00    1.0507132179037031E+01
Sn    2.3113578504954009E+00    3.3476678428470295E+00    1.0671101295606119E+01
Sn    2.4649133594142367E+00    9.4563794411617952E+00    1.0699732296523075E+01
Sn    9.2776958334930040E+00    3.1654397759473540E+00    1.1140878135456514E+01
Sn    9.8536156389417240E+00    1.0024063022426402E+01    1.1040597647215217E+01
Sn    7.8504715669243152E-01    6.1541712028284881E+00    1.1503515020055453E+01
Sn    1.2442857778534109E+00    1.3312919146486630E+01    1.1502982357003228E+01
Sn    7.2855183259212177E+00    5.7785283287634099E+00    1.1631184657507687E+01
Sn    7.6695292923662706E+00    1.2646990983186384E+01    1.1663942906848389E+01
Sn    4.1270421119308880E+00    6.0595493050435696E+00    1.1213355038082385E+01
Sn    4.4090674278893554E+00    1.2753076252473154E+01    1.1380229862171653E+01
Sn    1.0464566567315924E+01    6.2290901381042927E+00    1.1431112796869087E+01
Sn    1.0923865084283362E+01    1.2855793352152189E+01    1.2068287568877155E+01
Sn    1.2673664521886380E+01    1.2823408109268877E+01    1.5115883358894171E+01
Sn    1.2274588346101527E+01    6.6457561129496918E+00    1.4916023690624669E+01
Sn    6.0973821075749548E+00    1.4034577139486583E+01    1.4007359557482511E+01
Sn    5.8608864135753125E+00    6.3807789844304326E+00    1.4893211150327064E+01
Sn    3.0859785104993023E+00    1.2550583891052554E+01    1.4895518153559008E+01
Sn    2.5237358247547768E+00    6.1555464986449193E+00    1.4630342257743962E+01
Sn    9.2296586576615507E+00    1.2910224635111208E+01    1.5348227778190738E+01
Sn    9.0995248253826588E+00    6.1731210863222516E+00    1.5050862505581582E+01
Sn    1.1529336810416013E+00    2.8243660956577572E+00    1.5798494828029817E+01
Sn    6.6846528801114535E-01    9.9782764914953113E+00    1.3076848584087315E+01
Sn    7.3910014587761772E+00    3.1297124598386343E+00    1.6213435345894840E+01
Sn    7.5409036093184527E+00    9.0999134541215874E+00    1.3394829107104561E+01
Sn    4.1696643889466429E+00    2.8833442455278981E+00    1.3509238539036660E+01
Sn    4.0038668463162805E+00    9.3781482554600331E+00    1.4472185466591972E+01
Sn    1.0595978320817634E+01    2.5973446854413740E+00    1.4634832928213374E+01
Sn    1.0565470904733736E+01    9.8429350005957197E+00    1.4367297477483598E+01
H    1.2973595126547730E+00    3.2853011966920471E+00    3.0443251588573094E+01
H    3.9188970003647423E+00    9.9595806388824411E+00    3.2276585549833385E+01
H    8.7795088705324211E+00    2.9044664565494402E+00    2.9600981638961866E+01
H    1.1405091686669737E+01    9.9377473443417017E+00    2.9853527151271670E+01
H    1.5648102422509238E+00    3.3058777887488104E+00    3.2842452757029591E+01
H    4.2469417789086013E+00    1.2098978584874420E+01    3.1320307860481758E+01
H    8.2700009219116097E+00    4.4114065586031899E+00    3.1276968358627020E+01
H    1.0676313051435242E+01    1.2039593910566945E+01    3.0218423105046949E+01
H    3.3294700487782714E+00    3.1029323829811761E+00    3.2611258319311709E+01
H    4.0746388361971970E+00    1.1514251231042470E+01    2.9653350207348552E+01
H    9.8292883674864431E+00    4.2599307847773034E+00    3.2048580787693282E+01
H    9.2312258112359533E+00    1.1563975366297537E+01    3.1083204110180755E+01
H    4.2655579482130621E+00    3.0835494156798879E+00    3.0570472238701438E+01
H    3.3591560773349216E+00    9.0045842948118047E+00    2.9504341263350529E+01
H    1.1384717886192476E+01    2.5929387953737262E+00    3.0978313839350974E+01
H    9.1128990827540637E+00    8.9260417715458313E+00    3.1389237642545510E+01
H    3.2993563359927722E+00    3.3096984904156375E+00    2.9139466451307023E+01
H    3.4561890338964889E+00    8.1525417630100687E+00    3.1063081485737811E+01
H    1.0835178947227766E+01    1.7965106879616164E+00    2.9537682786602538E+01
H    1.0454474851136448E+01    8.0560255597370034E+00    3.0707334915630181E+01
H    1.5350542629072095E+00    3.7863538539869110E+00    2.3972730611444575E+01
H    5.1680372771599945E+00    1.0480943885153703E+01    2.5407852362732108E+01
H    9.8581061093148339E+00    3.5883893090575607E+00    2.3203410510690855E+01
H    1.1220665307657228E+01    1.0366699680559741E+01    2.5926913911433171E+01
H    2.6259589798016738E+00    5.6760009283077970E+00    2.4485931045061651E+01
H    5.6531345213544730E+00    1.1955802738016565E+01    2.3664661135483573E+01
H    7.8486373170878805E+00    3.7680580807242388E+00    2.4380004712393138E+01
H    1.0784389630064704E+01    1.1782957503927109E+01    2.4020454909818259E+01
H    4.1395812762481059E+00    4.8805186925004014E+00    2.4723103449292765E+01
H    4.2042258093962586E+00    1.1621028325451682E+01    2.2811574179582404E+01
H    8.7129867287411358E+00    4.3159526342415262E+00    2.5846597596878819E+01
H    9.6329024256171838E+00    1.0610965734138125E+01    2.3326471239158909E+01
H    4.1240697848253740E+00    2.3113020584668629E+00    2.4343773365914579E+01
H    2.7215568339269098E+00    9.8906702023765067E+00    2.3780595867698125E+01
H    1.1196249587652188E+01    4.3940425294774252E+00    2.5704589804532322E+01
H    9.5629848311052132E+00    8.3537430538664967E+00    2.4494127115645863E+01
H    2.5220953528505641E+00    1.6030714132623667E+00    2.4111969273701902E+01
H    3.1627282835859192E+00    9.1360005604462327E+00    2.5228846263386878E+01
H    1.1849295517868603E+01    4.1005157855725676E+00    2.4141647370534546E+01
H    1.0306675987396082E+01    8.3223447730364626E+00    2.6042623716765370E+01
H    6.7506287804919500E+00    9.0121630222088971E+00    1.6858012450483209E+01
H    7.4196763611553580E+00    1.0461186928139215E+01    1.6430813000101836E+01
H    6.3869150357835487E+00    1.2620127614051208E+01    1.7236442006120594E+01
H    5.1846980405458742E+00    1.2443332879445322E+01    1.8528087006721986E+01
H    4.4181098940867161E+00    1.0415149881687828E+01    1.9270086011718888E+01
H    4.9562796889907368E+00    8.9603149022663722E+00    1.8478242852638022E+01
H    9.6820968679976271E+00    8.7966018874613088E+00    1.8389276823546293E+01
H    1.0600809630613560E+01    8.4614191065107693E+00    1.6929379253821612E+01
H    1.2901740466531940E+01    8.8525255212649814E+00    1.6838323394606554E+01
H    8.5356401023688155E-01    9.4495389751849714E+00    1.8235771056512366E+01
H    1.2422046357104474E+01    9.7186542394177735E+00    2.0281752414287769E+01
H    1.0704604589494640E+01    9.8341406718983535E+00    2.0291057867802042E+01
Pb    1.2684434329786736E+01    2.4891459586394485E-01    3.3501383890453020E+01
Pb    4.9036722052633208E-02    7.7386376647442940E+00    3.3609346993642070E+01
Pb    7.0569426546853755E+00    1.0463597634846069E+00    3.3251801281731780E+01
Pb    6.6122194296121979E+00    7.2046561526047279E+00    3.3866070956810972E+01
Pb    2.6546952460462192E-01    5.1626047152074173E-01    2.7049665174868341E+01
Pb    2.9049982473434643E-01    7.1101374391830765E+00    2.7709117163625894E+01
Pb    6.4192851001067019E+00    5.3297382360551704E-01    2.7013503388506919E+01
Pb    6.6955145188327130E+00    7.3043214831389109E+00    2.7893575087512602E+01
Pb    6.7217874886263718E-01    7.5869926982562952E-01    2.0844581801206278E+01
Pb    7.7522048945252220E-01    7.3076541272649562E+00    2.0924381231085977E+01
Pb    7.0856899739667520E+00    1.5901582690109317E+00    2.1166962353260583E+01
Pb    7.2133024039821709E+00    7.4726063075062310E+00    2.1428386839455907E+01
C    2.2891046885608857E+00    3.2284904864379063E+00    3.0894413901299064E+01
C    3.8862139178771020E+00    1.0088770234932174E+01    3.1191258702163349E+01
C    9.5086923947695006E+00    3.1185311251629897E+00    3.0333851178288288E+01
C    1.0484196251449163E+01    1.0044124051813803E+01    3.0404018347310974E+01
C    2.5741245733355780E+00    3.6493297945747343E+00    2.4259506084160218E+01
C    4.5071195907064938E+00    1.0559160757683475E+01    2.4544771463861789E+01
C    9.8281567237321781E+00    3.8773104343139990E+00    2.4243648708630328E+01
C    1.0584438439402875E+01    1.0060776791166131E+01    2.5082892539526107E+01
C    5.8529884844498961E+00    1.0690098890986134E+01    1.7768034099674477E+01
C    1.1642071833104875E+01    9.2009270853980993E+00    1.8514186210680563E+01
S    7.6197751090551238E+00    6.5767293201217409E+00    1.8119536358248670E+01
I    1.2133946013708334E+01    3.2376924860902783E+00    3.3837056654524289E+01
I    1.1292023979384966E+00    1.0521040531865335E+01    3.3532857886347010E+01
I    6.2684085175129702E+00    3.7249093929263948E+00    3.4403222751644861E+01
I    7.2864098898317273E+00    9.9967970350632545E+00    3.2924128044811262E+01
I    4.2175197083067069E+00    1.3510041601527982E+01    3.3597079128604491E+01
I    2.6463105602404915E+00    6.4627212243640946E+00    3.4327920098370562E+01
I    9.8279055293211339E+00    1.2757128162511140E+01    3.4151500828806519E+01
I    9.5546078795817859E+00    6.3283383857897233E+00    3.4473672001670202E+01
I    1.3446462063586933E+01    3.5329715321878159E+00    2.7297459024636790E+01
I    4.6906352797221035E-01    1.0088939192684261E+01    2.7947830441764314E+01
I    5.5400802119037902E+00    3.3600746116524629E+00    2.7233981261495824E+01
I    7.2093446112169923E+00    1.0246048628689339E+01    2.7664974759810512E+01
I    4.2965830533507593E-01    2.1869295281178433E-01    3.0449275318524204E+01
I    1.2485013427361771E+01    6.3360748570450980E+00    3.0770902155539559E+01
I    7.1710906502788285E+00    2.4939559810069561E-01    3.0096653920807576E+01
I    6.4051697615189083E+00    6.1182076951182127E+00    3.0845033604050194E+01
I    3.6247425016498167E+00    1.2792494031657084E+01    2.7377048827383682E+01
I    3.2694847892371213E+00    6.6618692039044003E+00    2.7877987060567808E+01
I    1.0182687366159927E+01    1.3579277245680077E+01    2.7297096289857922E+01
I    9.4904751493026591E+00    5.8114212999104460E+00    2.7959048962404758E+01
I    1.2477854712483788E+01    3.5060633383426234E+00    2.1381113617712636E+01
I    1.8974608770319226E+00    1.0154796116184237E+01    2.1180469543633954E+01
I    5.9336542916070947E+00    4.0193858604459356E+00    2.2333366546204378E+01
I    7.9437401565677233E+00    1.0482007121534391E+01    2.1470458464096083E+01
I    7.2155206216429180E-01    1.3107647167770866E+01    2.3865258545896818E+01
I    6.0446196859065360E-01    7.0942707863726291E+00    2.4109321009914275E+01
I    7.7588912429366443E+00    1.3885638113555888E+01    2.3889111475935341E+01
I    6.1984499657556809E+00    7.2226836823268536E+00    2.4779000326697709E+01
I    4.3183941092376301E+00    1.3794638378245351E+01    2.0716234429470440E+01
I    3.1598279645601521E+00    6.0132823667624775E+00    1.9801885824194855E+01
I    1.1031799306055168E+01    1.3366624520467532E+01    1.9536081273321496E+01
I    9.9726575298689646E+00    6.8763825917298114E+00    2.2162366045587905E+01
N    2.3823968744933670E+00    3.1477779527545384E+00    3.2193368889413030E+01
N    4.0942792164603192E+00    1.1287953255772019E+01    3.0681787629136561E+01
N    9.2010051516324989E+00    3.9950061588891410E+00    3.1273155079235348E+01
N    1.0098646132535475E+01    1.1284442488186929E+01    3.0602308987882850E+01
N    3.3584002854616370E+00    3.2210799517294055E+00    3.0126266900289600E+01
N    3.5319874391710742E+00    9.0051465184847164E+00    3.0512397855703885E+01
N    1.0667818144358780E+01    2.4932564320737449E+00    3.0279275071607049E+01
N    9.9316169866668655E+00    8.9130028195440261E+00    3.0790911023951594E+01
N    3.1682953114250720E+00    4.7963234261232541E+00    2.4480860410035447E+01
N    4.8165132046824128E+00    1.1405364261538287E+01    2.3613470897724497E+01
N    8.7071577328304723E+00    3.9250065926054276E+00    2.4907086977499670E+01
N    1.0370278546977305E+01    1.0830669394299393E+01    2.4062127671951863E+01
N    3.1021566104736795E+00    2.4351943190663135E+00    2.4312589599407524E+01
N    3.4263860497609615E+00    9.7958490145375166E+00    2.4487877801586890E+01
N    1.1016878905434410E+01    4.1226064257281010E+00    2.4765555956349406E+01
N    1.0101207154387248E+01    8.8435115227803642E+00    2.5197572434070370E+01
N    6.6900629996763783E+00    1.0018898941036923E+01    1.6943254597009510E+01
N    5.9389114345381406E+00    1.2033463174531416E+01    1.7972362643830706E+01
N    4.9743918768567683E+00    1.0017336899349111E+01    1.8538166580344729E+01
N    1.0526596369650671E+01    8.9744336826595905E+00    1.7821912131522545E+01
N    1.2807554863624436E+01    9.0640735163817858E+00    1.7857009658851219E+01
N    1.1571504476328913E+01    9.6869880841340557E+00    1.9746154668965698E+01
O    7.2210324436971396E-01    8.4649722383062223E+00    1.1469850181732053E+01
O    1.5500047770614520E+00    1.7366594305625289E+00    1.2113708299186060E+01
O    7.4056432378720167E+00    7.9505356330758969E+00    1.1574771412283022E+01
O    7.4353407358223640E+00    1.1261738946074715E+00    1.2378321953955362E+01
O    4.0485032985055822E+00    8.1099491483749997E+00    1.0808656350240645E+01
O    4.8001114176749224E+00    1.3076432191976861E+00    1.2232264636500242E+01
O    1.0307955067956728E+01    8.0280769794632771E+00    1.0489839606344727E+01
O    1.0524684323157141E+01    1.8706309343284551E+00    1.2489180115179128E+01
O    9.0460062172825806E-01    4.3176997454467925E+00    1.2342923830161629E+01
O    1.3103600912729423E+00    1.1138554701519547E+01    1.1483687892824561E+01
O    7.3843677027404473E+00    3.6094215082450032E+00    1.1775916401169285E+01
O    7.6524598208718375E+00    1.0374095606906678E+01    1.1453405996320832E+01
O    3.8224959392421631E+00    4.0877172292014112E+00    1.1936890433147175E+01
O    4.6038465110827129E+00    1.0654619525354756E+01    1.0657115623852370E+01
O    1.0974133683651624E+01    4.1802053061542228E+00    1.1633539292954946E+01
O    1.1369478898023109E+01    1.0824485466697531E+01    1.2561402232958516E+01
O    1.2274404556706820E+01    6.4442658821248973E+00    9.9605959658169780E+00
O    1.2278359663504022E+01    1.3517503383965829E+01    1.0624929997708184E+01
O    5.8468619594696127E+00    5.7398990239664958E+00    1.0219489733344515E+01
O    6.2324025879214622E+00    1.3309455120544051E+01    1.0215502195492208E+01
O    2.4882492772278222E+00    5.4576313471976983E+00    1.0086300412078607E+01
O    2.7625073802971829E+00    1.3433784970611175E+01    1.0284229318113956E+01
O    8.9283548618608890E+00    5.4201883496641070E+00    1.0364315270274540E+01
O    9.5183811785420183E+00    1.2123805022398836E+01    1.0778354896830962E+01
O    1.1417943076552143E+01    1.0328636755024677E+01    9.6573628986484952E+00
O    1.3120374812189215E+01    3.0870348973520301E+00    1.0034481938423147E+01
O    5.7970996003218653E+00    8.8303717020241077E+00    8.2190002067251324E+00
O    5.0877562073799378E+00    2.9871305331226723E+00    9.8034067604246040E+00
O    1.5449548695857949E+00    8.8055104464718390E+00    8.9716401227928113E+00
O    3.8474761719115969E+00    2.2426097960328915E+00    9.7829656298736278E+00
O    4.9613901237347315E+00    7.7715826375108321E+00    7.9182560482542250E+00
O    8.6000362206949887E+00    1.8037132936719331E+00    9.9631040512327989E+00
O    8.8860852295726911E-01    5.0460832111523120E+00    1.5199104193946454E+01
O    1.1572292145046619E+00    1.1284238951103106E+01    1.4600341749397705E+01
O    7.3236094182353595E+00    5.0354050191783521E+00    1.5279042116987993E+01
O    8.6784548920965268E+00    1.0529702297235076E+01    1.4854383512911479E+01
O    4.2640418753712828E+00    4.9748938333397046E+00    1.4968834531306559E+01
O    3.9151424859498118E+00    1.0833216845019392E+01    1.5791318195539597E+01
O    1.0664311129355283E+01    4.8550264765788480E+00    1.5130608806042911E+01
O    1.1029351023439029E+01    1.1657557191622480E+01    1.5587336557134638E+01
O    1.4811094917353129E+00    1.6532123676028918E-01    1.5903226793284325E+01
O    1.3035230046867272E+00    7.6320299115233379E+00    1.5437728135572730E+01
O    7.4934831044836043E+00    2.3373195849810277E-01    1.5940364180933905E+01
O    7.4906144269703079E+00    7.7016667944570028E+00    1.4804966920837430E+01
O    4.6085799370628751E+00    2.4271620908134725E-01    1.5277020524540664E+01
O    4.2605175286948604E+00    7.5518477873909173E+00    1.5170061875381304E+01
O    1.0953420395806557E+01    7.0814845553304751E-01    1.5529953265069159E+01
O    1.0536786918601559E+01    7.6386599170082121E+00    1.5198513847431590E+01
O    1.2546800827313559E+01    2.5877183546164311E+00    1.4242666341672033E+01
O    1.2354103145356385E+01    8.9435717623065081E+00    1.4416658699628659E+01
O    5.9521401444664903E+00    2.5905667374715824E+00    1.4410723156155180E+01
O    5.5554132485020560E+00    9.5067375164407526E+00    1.3278829506653592E+01
O    2.7361931903712153E+00    2.4199835970630401E+00    1.4649724932743387E+01
O    2.6999592682144273E+00    9.4442117035004056E+00    1.2975289060448542E+01
O    8.7185551876400726E+00    2.4887205623107898E+00    1.4781577390412281E+01
O    9.5580346290814830E+00    8.8829193521478444E+00    1.2831665183004796E+01
O    1.2033750505253723E+01    6.5440983919219002E+00    1.2791269177400990E+01
O    1.2603923672034249E+01    1.3392150399383402E+01    1.3212451185013878E+01
O    5.6988785166979419E+00    5.9405739411082896E+00    1.2871130237665277E+01
O    6.0133971717678980E+00    1.2209619295863206E+01    1.2978623150119100E+01
O    2.5360124956168111E+00    6.5601506529488027E+00    1.2678495404402543E+01
O    2.9285970388762324E+00    1.2744813934165041E+01    1.2904985675158963E+01
O    9.1010199956360722E+00    5.9658711360148873E+00    1.3035358739748808E+01
O    9.2658193117546617E+00    1.2722234277076636E+01    1.3300909502459556E+01
O    8.9488602824986110E+00    6.3928895189346653E+00    1.7323261714013672E+01
O    7.3691521301621989E+00    5.4338219361791840E+00    1.8933425078095752E+01
O    7.7706032627103356E+00    7.8461940885725472E+00    1.8993039204697510E+01
O    6.5346517953205980E+00    7.0150641623947694E+00    1.7196839671145849E+01
     &END COORD
     &VELOCITY
          -6.2671249392095608E-05    4.6012321739123319E-05    6.0469969837402675E-05
           1.3628474390997730E-06   -2.2926425391233717E-04    5.8558927423799010E-05
          -3.0611361618649903E-05   -3.1554538420460617E-05    2.2845027892318248E-04
          -5.3177391606495621E-06    2.7411018434003475E-05   -9.5924752351174150E-06
           5.8839400733789478E-05   -2.8674918102365466E-04   -2.8812524813861946E-05
          -1.8283138222831562E-04    1.2506405750841701E-04   -4.2687720182612791E-05
           8.8140999528221075E-05    1.3134161919184034E-04   -1.8630755617040384E-04
           6.5023351616105851E-05   -2.3177644490418932E-06   -1.4722969027245540E-04
          -3.2745745157938594E-05   -2.0274014856097593E-05    4.8628647529510449E-05
          -6.5648222772852295E-05   -1.8100369743463972E-04    1.4271336387306478E-04
          -1.6542018424324731E-05   -5.0293966512177388E-05   -6.8797797978007062E-05
          -4.3771808354211630E-05   -1.4883328828889180E-04   -1.3249995147076148E-05
          -1.5135733148694513E-05    1.1107188888279950E-04    2.0268803300633680E-05
           2.8781493049411975E-05    2.5503237149299811E-05   -5.4371029360927513E-05
          -1.5125282621616788E-04    2.6001194422515281E-04   -1.0609223037997074E-04
           1.3428291850789748E-04    1.8911381751792652E-05    6.9367321223623969E-05
           8.2899459844749281E-05    7.1867351146866936E-05   -7.0337726863426044E-05
          -5.8715127381436768E-07   -9.5671625798386282E-05    5.2664283552210882E-05
           1.7177566220663284E-05   -3.3550167849440770E-05    2.9534293248302423E-05
          -7.2954901825506870E-05   -8.6703004842148221E-05    6.8633114481819022E-05
           1.0491263573333120E-04    8.2799484058140310E-05    1.5098106895089570E-04
          -1.0482688287245501E-04   -1.6567354282085445E-05   -6.8380674412569335E-05
          -3.3832951688988890E-05    7.5274540784865278E-05   -5.2669755163367704E-05
           3.8959383595307791E-05    6.4971547725605546E-06   -1.0834472612389691E-05
          -3.8300723408706191E-05    4.5736064298842394E-07    6.3389221483514064E-05
          -7.2095033620685547E-05   -8.3367204189831550E-05    6.6468781322090627E-06
          -1.5710061164386632E-05   -8.6024455185985551E-06    2.9152654633198210E-05
          -1.1568789650705996E-05    1.8067164136949351E-05    2.0219569475682228E-05
          -4.6488852187423146E-05    9.0058959178202628E-05    2.7768580371228759E-04
          -8.0510215692133221E-05   -1.2432953662953967E-04   -5.8951945251870895E-06
          -1.3227510809996248E-05   -1.1992322468236809E-05   -1.6494013360606145E-06
           4.3753112565811909E-05   -2.6351779952269008E-05   -1.2402991208682556E-06
          -8.4803653699614087E-05   -6.1643344606229300E-04   -3.0842608189640177E-05
           3.7275930966788613E-04   -2.8955689151130467E-04    1.7912484823705483E-04
          -2.2265957247887223E-05    1.3489139051489139E-04   -7.1227685717501659E-04
          -3.0203685357220244E-04    5.1314164326059903E-04   -1.2463974586946153E-04
          -3.5356209237601084E-04   -3.1964408315816130E-04    5.4969985209405716E-04
          -2.2532857526027633E-04   -3.3994353565577949E-04   -7.5070302848810047E-04
          -2.1259677179178902E-04   -5.1183041412963236E-05   -7.4989962295493031E-04
          -4.8034847272432769E-04   -1.7796732120435867E-04    1.7584294867262659E-04
          -1.8222684013266733E-04   -3.1825508176437899E-04    1.0648125908985190E-03
           2.3757604420143348E-04    3.6588964256621106E-04   -1.4453294070464820E-05
          -3.5276799657305615E-04   -5.1854353423709380E-04    5.6673153861462285E-05
          -1.7286820089424515E-04   -7.0518631610038215E-05   -4.3561235188071818E-04
          -1.1917571219787203E-04   -5.8633207736376260E-04    6.8671491047231662E-04
          -5.9355579536021536E-04   -3.5835262281861524E-04    6.1343308013144462E-05
          -8.7735768555669003E-04    1.0039722089278328E-04    3.3534743661731294E-04
           2.5639561881463021E-04   -6.2541361894658863E-05    3.0829424008470350E-04
           2.7519760506128696E-04   -7.8013500590697418E-04   -1.8296433165673867E-04
           2.1034863746141090E-04    6.0798463443572184E-05    2.4023835270133134E-04
           8.9691819595983088E-05    2.6401249041231942E-04   -4.2494104080767990E-04
           3.2946713941739035E-04   -1.5806361097346696E-05   -6.0524284876292136E-04
          -4.9485267942572016E-04   -4.2609859769576259E-04    4.4764843718441875E-04
           1.3812794420623597E-04    1.1554015388333024E-04   -3.1286092386187712E-04
           1.0206054720853166E-04   -2.1823742550806558E-04   -9.7171266540166076E-04
          -4.7084459096619703E-04   -8.5691524254168159E-04    8.7222599018722360E-05
           2.1009398354438960E-04   -4.2118777263832241E-04    5.7239662708182633E-04
           1.0872495594982898E-04    6.5812512890960203E-04   -1.2781815610366485E-04
          -2.8814758706968510E-05    7.8275094762970878E-04    3.5889853016763963E-04
           5.7995499281498846E-04    5.0772123241991929E-04    5.3429602857243768E-04
           9.4017048963594414E-05    5.9018673048227767E-04   -2.7691692320600339E-04
          -1.5684422432407473E-04   -4.3050777296754729E-05   -2.6393273700124598E-04
          -2.1754512176658556E-04    7.0683719020022372E-04    1.3669229319948184E-04
           4.5088094150182113E-04    1.8833806289394060E-04   -1.6261169829849726E-04
           3.4719077615393195E-05    2.2923360714625205E-04   -1.9907293431626932E-04
          -3.1556496694204158E-04    6.0417090407170304E-04   -1.2379879581480346E-04
           3.8604985566020769E-04    6.5591369199667507E-04   -8.9958585721741158E-04
          -9.2026950407463244E-04    1.1363617558778103E-05    4.1942623682476697E-04
           2.3158867951555065E-04   -3.2799069772693695E-05    1.6197609519064693E-04
          -1.8213621673729999E-04   -7.5434214199458088E-04    1.1171952997243832E-04
          -8.0723106295828116E-05   -2.9724767937118550E-05   -1.2669467214089226E-04
          -2.6096961939623970E-04   -3.4999585597153722E-04    3.2927221411236383E-04
          -7.7116173314968725E-04   -9.3685358455340131E-04   -3.9987478586852557E-04
           7.7776764443471648E-04    6.2003065962430026E-05    6.1025005225696877E-06
           1.4413300811875404E-03   -1.4603313768217304E-04   -3.6856344703841935E-05
          -8.8420332611654562E-04   -4.7409091205944043E-04   -2.4137451920105569E-04
          -1.1088898862491595E-04   -8.8553429924786054E-04    2.8351321337301923E-04
           1.1206382704707311E-03   -6.9111362236947966E-04   -8.3403996590180620E-04
          -6.5444629207891511E-05    2.3203460894231047E-04   -8.5526895320326538E-05